s 0.005480701 _2_ MAC  --- 0 ARP 28 [0 2000000 ffff0608 0] ------- [REQUEST 2/2 0/0]
r 0.005592707 _1_ MAC  --- 0 ARP 28 [0 2000000 ffff0608 0] ------- [REQUEST 2/2 0/0]
r 0.005592778 _0_ MAC  --- 0 ARP 28 [0 2000000 ffff0608 0] ------- [REQUEST 2/2 0/0]
r 0.005592794 _8_ MAC  --- 0 ARP 28 [0 2000000 ffff0608 0] ------- [REQUEST 2/2 0/0]
r 0.005592816 _5_ MAC  --- 0 ARP 28 [0 2000000 ffff0608 0] ------- [REQUEST 2/2 0/0]
r 0.005592824 _4_ MAC  --- 0 ARP 28 [0 2000000 ffff0608 0] ------- [REQUEST 2/2 0/0]
r 0.005592824 _3_ MAC  --- 0 ARP 28 [0 2000000 ffff0608 0] ------- [REQUEST 2/2 0/0]
r 0.005592832 _7_ MAC  --- 0 ARP 28 [0 2000000 ffff0608 0] ------- [REQUEST 2/2 0/0]
r 0.005592839 _9_ MAC  --- 0 ARP 28 [0 2000000 ffff0608 0] ------- [REQUEST 2/2 0/0]
r 0.005592855 _6_ MAC  --- 0 ARP 28 [0 2000000 ffff0608 0] ------- [REQUEST 2/2 0/0]
r 0.005592874 _10_ MAC  --- 0 ARP 28 [0 2000000 ffff0608 0] ------- [REQUEST 2/2 0/0]
s 0.015397778 _0_ MAC  --- 0 ARP 28 [0 0 608 0] ------- [REPLY 0/0 2/2]
r 0.015509854 _2_ MAC  --- 0 ARP 28 [0 0 608 0] ------- [REPLY 0/0 2/2]
s 0.017146170 _1_ MAC  --- 0 ARP 28 [0 1000000 ffff0608 0] ------- [REQUEST 1/1 0/0]
r 0.017258176 _2_ MAC  --- 0 ARP 28 [0 1000000 ffff0608 0] ------- [REQUEST 1/1 0/0]
r 0.017258241 _0_ MAC  --- 0 ARP 28 [0 1000000 ffff0608 0] ------- [REQUEST 1/1 0/0]
r 0.017258261 _8_ MAC  --- 0 ARP 28 [0 1000000 ffff0608 0] ------- [REQUEST 1/1 0/0]
r 0.017258279 _5_ MAC  --- 0 ARP 28 [0 1000000 ffff0608 0] ------- [REQUEST 1/1 0/0]
r 0.017258288 _4_ MAC  --- 0 ARP 28 [0 1000000 ffff0608 0] ------- [REQUEST 1/1 0/0]
r 0.017258288 _3_ MAC  --- 0 ARP 28 [0 1000000 ffff0608 0] ------- [REQUEST 1/1 0/0]
r 0.017258295 _7_ MAC  --- 0 ARP 28 [0 1000000 ffff0608 0] ------- [REQUEST 1/1 0/0]
r 0.017258303 _9_ MAC  --- 0 ARP 28 [0 1000000 ffff0608 0] ------- [REQUEST 1/1 0/0]
r 0.017258317 _6_ MAC  --- 0 ARP 28 [0 1000000 ffff0608 0] ------- [REQUEST 1/1 0/0]
r 0.017258337 _10_ MAC  --- 0 ARP 28 [0 1000000 ffff0608 0] ------- [REQUEST 1/1 0/0]
s 0.017700700 _3_ MAC  --- 0 ARP 28 [0 3000000 ffff0608 0] ------- [REQUEST 3/3 0/0]
r 0.017812723 _4_ MAC  --- 0 ARP 28 [0 3000000 ffff0608 0] ------- [REQUEST 3/3 0/0]
r 0.017812764 _6_ MAC  --- 0 ARP 28 [0 3000000 ffff0608 0] ------- [REQUEST 3/3 0/0]
r 0.017812786 _0_ MAC  --- 0 ARP 28 [0 3000000 ffff0608 0] ------- [REQUEST 3/3 0/0]
r 0.017812796 _5_ MAC  --- 0 ARP 28 [0 3000000 ffff0608 0] ------- [REQUEST 3/3 0/0]
r 0.017812818 _1_ MAC  --- 0 ARP 28 [0 3000000 ffff0608 0] ------- [REQUEST 3/3 0/0]
r 0.017812823 _2_ MAC  --- 0 ARP 28 [0 3000000 ffff0608 0] ------- [REQUEST 3/3 0/0]
r 0.017812824 _10_ MAC  --- 0 ARP 28 [0 3000000 ffff0608 0] ------- [REQUEST 3/3 0/0]
r 0.017812827 _7_ MAC  --- 0 ARP 28 [0 3000000 ffff0608 0] ------- [REQUEST 3/3 0/0]
r 0.017812846 _9_ MAC  --- 0 ARP 28 [0 3000000 ffff0608 0] ------- [REQUEST 3/3 0/0]
r 0.017812862 _8_ MAC  --- 0 ARP 28 [0 3000000 ffff0608 0] ------- [REQUEST 3/3 0/0]
s 0.020114854 _2_ MAC  --- 0 cbr 16 [0 2000000 8 0] ------- [2:0 0:0 32 0] [0] 0 0
r 0.020178931 _0_ MAC  --- 0 cbr 16 [0 2000000 8 0] ------- [2:0 0:0 32 0] [0] 0 0
s 0.020346708 _9_ MAC  --- 0 ARP 28 [0 9000000 ffff0608 0] ------- [REQUEST 9/9 0/0]
s 0.020359812 _4_ MAC  --- 0 ARP 28 [0 4000000 ffff0608 0] ------- [REQUEST 4/4 0/0]
r 0.020458728 _7_ MAC  --- 0 ARP 28 [0 9000000 ffff0608 0] ------- [REQUEST 9/9 0/0]
r 0.020458873 _4_ MAC  --- 0 ARP 28 [0 9000000 ffff0608 0] ------- [REQUEST 9/9 0/0]
D 0.020471835 _3_ MAC  COL 0 ARP 28 [0 4000000 ffff0608 0] ------- [REQUEST 4/4 0/0]
D 0.020471899 _6_ MAC  COL 0 ARP 28 [0 4000000 ffff0608 0] ------- [REQUEST 4/4 0/0]
D 0.020471911 _0_ MAC  COL 0 ARP 28 [0 4000000 ffff0608 0] ------- [REQUEST 4/4 0/0]
D 0.020471928 _5_ MAC  COL 0 ARP 28 [0 4000000 ffff0608 0] ------- [REQUEST 4/4 0/0]
D 0.020471930 _1_ MAC  COL 0 ARP 28 [0 4000000 ffff0608 0] ------- [REQUEST 4/4 0/0]
D 0.020471935 _2_ MAC  COL 0 ARP 28 [0 4000000 ffff0608 0] ------- [REQUEST 4/4 0/0]
D 0.020471959 _10_ MAC  COL 0 ARP 28 [0 4000000 ffff0608 0] ------- [REQUEST 4/4 0/0]
r 0.020471977 _9_ MAC  --- 0 ARP 28 [0 4000000 ffff0608 0] ------- [REQUEST 4/4 0/0]
D 0.020471986 _8_ MAC  COL 0 ARP 28 [0 4000000 ffff0608 0] ------- [REQUEST 4/4 0/0]
s 0.023177630 _10_ MAC  --- 0 ARP 28 [0 a000000 ffff0608 0] ------- [REQUEST 10/10 0/0]
r 0.023289685 _7_ MAC  --- 0 ARP 28 [0 a000000 ffff0608 0] ------- [REQUEST 10/10 0/0]
r 0.023289688 _5_ MAC  --- 0 ARP 28 [0 a000000 ffff0608 0] ------- [REQUEST 10/10 0/0]
r 0.023289695 _6_ MAC  --- 0 ARP 28 [0 a000000 ffff0608 0] ------- [REQUEST 10/10 0/0]
r 0.023289698 _9_ MAC  --- 0 ARP 28 [0 a000000 ffff0608 0] ------- [REQUEST 10/10 0/0]
r 0.023289726 _0_ MAC  --- 0 ARP 28 [0 a000000 ffff0608 0] ------- [REQUEST 10/10 0/0]
r 0.023289754 _3_ MAC  --- 0 ARP 28 [0 a000000 ffff0608 0] ------- [REQUEST 10/10 0/0]
r 0.023289763 _8_ MAC  --- 0 ARP 28 [0 a000000 ffff0608 0] ------- [REQUEST 10/10 0/0]
r 0.023289777 _4_ MAC  --- 0 ARP 28 [0 a000000 ffff0608 0] ------- [REQUEST 10/10 0/0]
r 0.023289797 _1_ MAC  --- 0 ARP 28 [0 a000000 ffff0608 0] ------- [REQUEST 10/10 0/0]
r 0.023289803 _2_ MAC  --- 0 ARP 28 [0 a000000 ffff0608 0] ------- [REQUEST 10/10 0/0]
s 0.025263241 _0_ MAC  --- 0 ARP 28 [0 0 608 0] ------- [REPLY 0/0 1/1]
r 0.025375311 _1_ MAC  --- 0 ARP 28 [0 0 608 0] ------- [REPLY 0/0 1/1]
D 0.025741708 _9_ IFQ  ARP 1 cbr 16 [0 9000000 8 0] ------- [9:0 0:0 32 0] [0] 0 0
s 0.025860610 _8_ MAC  --- 0 ARP 28 [0 8000000 ffff0608 0] ------- [REQUEST 8/8 0/0]
r 0.025972680 _9_ MAC  --- 0 ARP 28 [0 8000000 ffff0608 0] ------- [REQUEST 8/8 0/0]
r 0.025972687 _0_ MAC  --- 0 ARP 28 [0 8000000 ffff0608 0] ------- [REQUEST 8/8 0/0]
r 0.025972688 _7_ MAC  --- 0 ARP 28 [0 8000000 ffff0608 0] ------- [REQUEST 8/8 0/0]
r 0.025972698 _5_ MAC  --- 0 ARP 28 [0 8000000 ffff0608 0] ------- [REQUEST 8/8 0/0]
r 0.025972701 _1_ MAC  --- 0 ARP 28 [0 8000000 ffff0608 0] ------- [REQUEST 8/8 0/0]
r 0.025972703 _2_ MAC  --- 0 ARP 28 [0 8000000 ffff0608 0] ------- [REQUEST 8/8 0/0]
r 0.025972743 _10_ MAC  --- 0 ARP 28 [0 8000000 ffff0608 0] ------- [REQUEST 8/8 0/0]
r 0.025972763 _6_ MAC  --- 0 ARP 28 [0 8000000 ffff0608 0] ------- [REQUEST 8/8 0/0]
r 0.025972772 _3_ MAC  --- 0 ARP 28 [0 8000000 ffff0608 0] ------- [REQUEST 8/8 0/0]
r 0.025972784 _4_ MAC  --- 0 ARP 28 [0 8000000 ffff0608 0] ------- [REQUEST 8/8 0/0]
s 0.025980311 _1_ MAC  --- 3 cbr 16 [0 1000000 8 0] ------- [1:0 0:0 32 0] [0] 0 0
r 0.026044382 _0_ MAC  --- 3 cbr 16 [0 1000000 8 0] ------- [1:0 0:0 32 0] [0] 0 0
D 0.028754812 _4_ IFQ  ARP 2 cbr 16 [0 4000000 8 0] ------- [4:0 0:0 32 0] [0] 0 0
s 0.030610380 _6_ MAC  --- 0 ARP 28 [0 6000000 ffff0608 0] ------- [REQUEST 6/6 0/0]
r 0.030722444 _3_ MAC  --- 0 ARP 28 [0 6000000 ffff0608 0] ------- [REQUEST 6/6 0/0]
r 0.030722445 _10_ MAC  --- 0 ARP 28 [0 6000000 ffff0608 0] ------- [REQUEST 6/6 0/0]
r 0.030722447 _5_ MAC  --- 0 ARP 28 [0 6000000 ffff0608 0] ------- [REQUEST 6/6 0/0]
r 0.030722465 _0_ MAC  --- 0 ARP 28 [0 6000000 ffff0608 0] ------- [REQUEST 6/6 0/0]
r 0.030722467 _4_ MAC  --- 0 ARP 28 [0 6000000 ffff0608 0] ------- [REQUEST 6/6 0/0]
r 0.030722471 _7_ MAC  --- 0 ARP 28 [0 6000000 ffff0608 0] ------- [REQUEST 6/6 0/0]
r 0.030722490 _9_ MAC  --- 0 ARP 28 [0 6000000 ffff0608 0] ------- [REQUEST 6/6 0/0]
r 0.030722527 _1_ MAC  --- 0 ARP 28 [0 6000000 ffff0608 0] ------- [REQUEST 6/6 0/0]
r 0.030722533 _8_ MAC  --- 0 ARP 28 [0 6000000 ffff0608 0] ------- [REQUEST 6/6 0/0]
r 0.030722534 _2_ MAC  --- 0 ARP 28 [0 6000000 ffff0608 0] ------- [REQUEST 6/6 0/0]
s 0.031146708 _9_ MAC  --- 0 ARP 28 [0 9000000 ffff0608 0] ------- [REQUEST 9/9 0/0]
r 0.031258728 _7_ MAC  --- 0 ARP 28 [0 9000000 ffff0608 0] ------- [REQUEST 9/9 0/0]
r 0.031258758 _5_ MAC  --- 0 ARP 28 [0 9000000 ffff0608 0] ------- [REQUEST 9/9 0/0]
r 0.031258776 _10_ MAC  --- 0 ARP 28 [0 9000000 ffff0608 0] ------- [REQUEST 9/9 0/0]
r 0.031258778 _8_ MAC  --- 0 ARP 28 [0 9000000 ffff0608 0] ------- [REQUEST 9/9 0/0]
r 0.031258783 _0_ MAC  --- 0 ARP 28 [0 9000000 ffff0608 0] ------- [REQUEST 9/9 0/0]
r 0.031258818 _6_ MAC  --- 0 ARP 28 [0 9000000 ffff0608 0] ------- [REQUEST 9/9 0/0]
r 0.031258841 _1_ MAC  --- 0 ARP 28 [0 9000000 ffff0608 0] ------- [REQUEST 9/9 0/0]
r 0.031258846 _2_ MAC  --- 0 ARP 28 [0 9000000 ffff0608 0] ------- [REQUEST 9/9 0/0]
r 0.031258854 _3_ MAC  --- 0 ARP 28 [0 9000000 ffff0608 0] ------- [REQUEST 9/9 0/0]
r 0.031258873 _4_ MAC  --- 0 ARP 28 [0 9000000 ffff0608 0] ------- [REQUEST 9/9 0/0]
D 0.031455610 _8_ IFQ  ARP 4 cbr 16 [0 8000000 8 0] ------- [8:0 0:0 32 0] [0] 0 0
s 0.031462640 _7_ MAC  --- 0 ARP 28 [0 7000000 ffff0608 0] ------- [REQUEST 7/7 0/0]
r 0.031574660 _9_ MAC  --- 0 ARP 28 [0 7000000 ffff0608 0] ------- [REQUEST 7/7 0/0]
r 0.031574671 _5_ MAC  --- 0 ARP 28 [0 7000000 ffff0608 0] ------- [REQUEST 7/7 0/0]
r 0.031574695 _10_ MAC  --- 0 ARP 28 [0 7000000 ffff0608 0] ------- [REQUEST 7/7 0/0]
r 0.031574701 _0_ MAC  --- 0 ARP 28 [0 7000000 ffff0608 0] ------- [REQUEST 7/7 0/0]
r 0.031574718 _8_ MAC  --- 0 ARP 28 [0 7000000 ffff0608 0] ------- [REQUEST 7/7 0/0]
r 0.031574731 _6_ MAC  --- 0 ARP 28 [0 7000000 ffff0608 0] ------- [REQUEST 7/7 0/0]
r 0.031574765 _1_ MAC  --- 0 ARP 28 [0 7000000 ffff0608 0] ------- [REQUEST 7/7 0/0]
r 0.031574767 _3_ MAC  --- 0 ARP 28 [0 7000000 ffff0608 0] ------- [REQUEST 7/7 0/0]
r 0.031574771 _2_ MAC  --- 0 ARP 28 [0 7000000 ffff0608 0] ------- [REQUEST 7/7 0/0]
r 0.031574786 _4_ MAC  --- 0 ARP 28 [0 7000000 ffff0608 0] ------- [REQUEST 7/7 0/0]
s 0.032500701 _2_ MAC  --- 10 cbr 16 [0 2000000 8 0] ------- [2:0 0:0 32 0] [1] 0 0
r 0.032564778 _0_ MAC  --- 10 cbr 16 [0 2000000 8 0] ------- [2:0 0:0 32 0] [1] 0 0
s 0.033860610 _8_ MAC  --- 0 ARP 28 [0 8000000 ffff0608 0] ------- [REQUEST 8/8 0/0]
r 0.033972680 _9_ MAC  --- 0 ARP 28 [0 8000000 ffff0608 0] ------- [REQUEST 8/8 0/0]
r 0.033972687 _0_ MAC  --- 0 ARP 28 [0 8000000 ffff0608 0] ------- [REQUEST 8/8 0/0]
r 0.033972688 _7_ MAC  --- 0 ARP 28 [0 8000000 ffff0608 0] ------- [REQUEST 8/8 0/0]
r 0.033972698 _5_ MAC  --- 0 ARP 28 [0 8000000 ffff0608 0] ------- [REQUEST 8/8 0/0]
r 0.033972701 _1_ MAC  --- 0 ARP 28 [0 8000000 ffff0608 0] ------- [REQUEST 8/8 0/0]
r 0.033972703 _2_ MAC  --- 0 ARP 28 [0 8000000 ffff0608 0] ------- [REQUEST 8/8 0/0]
r 0.033972743 _10_ MAC  --- 0 ARP 28 [0 8000000 ffff0608 0] ------- [REQUEST 8/8 0/0]
r 0.033972763 _6_ MAC  --- 0 ARP 28 [0 8000000 ffff0608 0] ------- [REQUEST 8/8 0/0]
r 0.033972772 _3_ MAC  --- 0 ARP 28 [0 8000000 ffff0608 0] ------- [REQUEST 8/8 0/0]
r 0.033972784 _4_ MAC  --- 0 ARP 28 [0 8000000 ffff0608 0] ------- [REQUEST 8/8 0/0]
D 0.034372630 _10_ IFQ  ARP 5 cbr 16 [0 a000000 8 0] ------- [10:0 0:0 32 0] [0] 0 0
s 0.034559812 _4_ MAC  --- 0 ARP 28 [0 4000000 ffff0608 0] ------- [REQUEST 4/4 0/0]
r 0.034671835 _3_ MAC  --- 0 ARP 28 [0 4000000 ffff0608 0] ------- [REQUEST 4/4 0/0]
r 0.034671899 _6_ MAC  --- 0 ARP 28 [0 4000000 ffff0608 0] ------- [REQUEST 4/4 0/0]
r 0.034671911 _0_ MAC  --- 0 ARP 28 [0 4000000 ffff0608 0] ------- [REQUEST 4/4 0/0]
r 0.034671928 _5_ MAC  --- 0 ARP 28 [0 4000000 ffff0608 0] ------- [REQUEST 4/4 0/0]
r 0.034671930 _1_ MAC  --- 0 ARP 28 [0 4000000 ffff0608 0] ------- [REQUEST 4/4 0/0]
r 0.034671935 _2_ MAC  --- 0 ARP 28 [0 4000000 ffff0608 0] ------- [REQUEST 4/4 0/0]
r 0.034671958 _7_ MAC  --- 0 ARP 28 [0 4000000 ffff0608 0] ------- [REQUEST 4/4 0/0]
r 0.034671959 _10_ MAC  --- 0 ARP 28 [0 4000000 ffff0608 0] ------- [REQUEST 4/4 0/0]
r 0.034671977 _9_ MAC  --- 0 ARP 28 [0 4000000 ffff0608 0] ------- [REQUEST 4/4 0/0]
r 0.034671986 _8_ MAC  --- 0 ARP 28 [0 4000000 ffff0608 0] ------- [REQUEST 4/4 0/0]
s 0.034977630 _10_ MAC  --- 0 ARP 28 [0 a000000 ffff0608 0] ------- [REQUEST 10/10 0/0]
D 0.035005380 _6_ IFQ  ARP 6 cbr 16 [0 6000000 8 0] ------- [6:0 0:0 32 0] [0] 0 0
r 0.035089685 _7_ MAC  --- 0 ARP 28 [0 a000000 ffff0608 0] ------- [REQUEST 10/10 0/0]
r 0.035089688 _5_ MAC  --- 0 ARP 28 [0 a000000 ffff0608 0] ------- [REQUEST 10/10 0/0]
r 0.035089695 _6_ MAC  --- 0 ARP 28 [0 a000000 ffff0608 0] ------- [REQUEST 10/10 0/0]
r 0.035089698 _9_ MAC  --- 0 ARP 28 [0 a000000 ffff0608 0] ------- [REQUEST 10/10 0/0]
r 0.035089726 _0_ MAC  --- 0 ARP 28 [0 a000000 ffff0608 0] ------- [REQUEST 10/10 0/0]
r 0.035089754 _3_ MAC  --- 0 ARP 28 [0 a000000 ffff0608 0] ------- [REQUEST 10/10 0/0]
r 0.035089763 _8_ MAC  --- 0 ARP 28 [0 a000000 ffff0608 0] ------- [REQUEST 10/10 0/0]
r 0.035089777 _4_ MAC  --- 0 ARP 28 [0 a000000 ffff0608 0] ------- [REQUEST 10/10 0/0]
r 0.035089797 _1_ MAC  --- 0 ARP 28 [0 a000000 ffff0608 0] ------- [REQUEST 10/10 0/0]
r 0.035089803 _2_ MAC  --- 0 ARP 28 [0 a000000 ffff0608 0] ------- [REQUEST 10/10 0/0]
D 0.035895700 _3_ IFQ  ARP 7 cbr 16 [0 3000000 8 0] ------- [3:0 0:0 32 0] [0] 0 0
s 0.037376060 _5_ MAC  --- 0 ARP 28 [0 5000000 ffff0608 0] ------- [REQUEST 5/5 0/0]
r 0.037488091 _7_ MAC  --- 0 ARP 28 [0 5000000 ffff0608 0] ------- [REQUEST 5/5 0/0]
r 0.037488099 _0_ MAC  --- 0 ARP 28 [0 5000000 ffff0608 0] ------- [REQUEST 5/5 0/0]
r 0.037488110 _9_ MAC  --- 0 ARP 28 [0 5000000 ffff0608 0] ------- [REQUEST 5/5 0/0]
r 0.037488118 _10_ MAC  --- 0 ARP 28 [0 5000000 ffff0608 0] ------- [REQUEST 5/5 0/0]
r 0.037488127 _6_ MAC  --- 0 ARP 28 [0 5000000 ffff0608 0] ------- [REQUEST 5/5 0/0]
r 0.037488148 _8_ MAC  --- 0 ARP 28 [0 5000000 ffff0608 0] ------- [REQUEST 5/5 0/0]
r 0.037488156 _3_ MAC  --- 0 ARP 28 [0 5000000 ffff0608 0] ------- [REQUEST 5/5 0/0]
r 0.037488169 _1_ MAC  --- 0 ARP 28 [0 5000000 ffff0608 0] ------- [REQUEST 5/5 0/0]
r 0.037488175 _2_ MAC  --- 0 ARP 28 [0 5000000 ffff0608 0] ------- [REQUEST 5/5 0/0]
r 0.037488176 _4_ MAC  --- 0 ARP 28 [0 5000000 ffff0608 0] ------- [REQUEST 5/5 0/0]
s 0.037700700 _3_ MAC  --- 0 ARP 28 [0 3000000 ffff0608 0] ------- [REQUEST 3/3 0/0]
r 0.037812723 _4_ MAC  --- 0 ARP 28 [0 3000000 ffff0608 0] ------- [REQUEST 3/3 0/0]
r 0.037812764 _6_ MAC  --- 0 ARP 28 [0 3000000 ffff0608 0] ------- [REQUEST 3/3 0/0]
r 0.037812786 _0_ MAC  --- 0 ARP 28 [0 3000000 ffff0608 0] ------- [REQUEST 3/3 0/0]
r 0.037812796 _5_ MAC  --- 0 ARP 28 [0 3000000 ffff0608 0] ------- [REQUEST 3/3 0/0]
r 0.037812818 _1_ MAC  --- 0 ARP 28 [0 3000000 ffff0608 0] ------- [REQUEST 3/3 0/0]
r 0.037812823 _2_ MAC  --- 0 ARP 28 [0 3000000 ffff0608 0] ------- [REQUEST 3/3 0/0]
r 0.037812824 _10_ MAC  --- 0 ARP 28 [0 3000000 ffff0608 0] ------- [REQUEST 3/3 0/0]
r 0.037812827 _7_ MAC  --- 0 ARP 28 [0 3000000 ffff0608 0] ------- [REQUEST 3/3 0/0]
r 0.037812846 _9_ MAC  --- 0 ARP 28 [0 3000000 ffff0608 0] ------- [REQUEST 3/3 0/0]
r 0.037812862 _8_ MAC  --- 0 ARP 28 [0 3000000 ffff0608 0] ------- [REQUEST 3/3 0/0]
D 0.038457640 _7_ IFQ  ARP 8 cbr 16 [0 7000000 8 0] ------- [7:0 0:0 32 0] [0] 0 0
D 0.038971060 _5_ IFQ  ARP 9 cbr 16 [0 5000000 8 0] ------- [5:0 0:0 32 0] [0] 0 0
s 0.039166170 _1_ MAC  --- 13 cbr 16 [0 1000000 8 0] ------- [1:0 0:0 32 0] [1] 0 0
r 0.039230241 _0_ MAC  --- 13 cbr 16 [0 1000000 8 0] ------- [1:0 0:0 32 0] [1] 0 0
s 0.042775241 _0_ MAC  --- 0 ARP 28 [0 0 608 0] ------- [REPLY 0/0 3/3]
r 0.042887326 _3_ MAC  --- 0 ARP 28 [0 0 608 0] ------- [REPLY 0/0 3/3]
D 0.045741708 _9_ IFQ  ARP 11 cbr 16 [0 9000000 8 0] ------- [9:0 0:0 32 0] [1] 0 0
D 0.048754812 _4_ IFQ  ARP 12 cbr 16 [0 4000000 8 0] ------- [4:0 0:0 32 0] [1] 0 0
s 0.048810380 _6_ MAC  --- 0 ARP 28 [0 6000000 ffff0608 0] ------- [REQUEST 6/6 0/0]
r 0.048922444 _3_ MAC  --- 0 ARP 28 [0 6000000 ffff0608 0] ------- [REQUEST 6/6 0/0]
r 0.048922445 _10_ MAC  --- 0 ARP 28 [0 6000000 ffff0608 0] ------- [REQUEST 6/6 0/0]
r 0.048922447 _5_ MAC  --- 0 ARP 28 [0 6000000 ffff0608 0] ------- [REQUEST 6/6 0/0]
r 0.048922465 _0_ MAC  --- 0 ARP 28 [0 6000000 ffff0608 0] ------- [REQUEST 6/6 0/0]
r 0.048922467 _4_ MAC  --- 0 ARP 28 [0 6000000 ffff0608 0] ------- [REQUEST 6/6 0/0]
r 0.048922471 _7_ MAC  --- 0 ARP 28 [0 6000000 ffff0608 0] ------- [REQUEST 6/6 0/0]
r 0.048922490 _9_ MAC  --- 0 ARP 28 [0 6000000 ffff0608 0] ------- [REQUEST 6/6 0/0]
r 0.048922527 _1_ MAC  --- 0 ARP 28 [0 6000000 ffff0608 0] ------- [REQUEST 6/6 0/0]
r 0.048922533 _8_ MAC  --- 0 ARP 28 [0 6000000 ffff0608 0] ------- [REQUEST 6/6 0/0]
r 0.048922534 _2_ MAC  --- 0 ARP 28 [0 6000000 ffff0608 0] ------- [REQUEST 6/6 0/0]
s 0.048946708 _9_ MAC  --- 0 ARP 28 [0 9000000 ffff0608 0] ------- [REQUEST 9/9 0/0]
r 0.049058728 _7_ MAC  --- 0 ARP 28 [0 9000000 ffff0608 0] ------- [REQUEST 9/9 0/0]
r 0.049058758 _5_ MAC  --- 0 ARP 28 [0 9000000 ffff0608 0] ------- [REQUEST 9/9 0/0]
r 0.049058776 _10_ MAC  --- 0 ARP 28 [0 9000000 ffff0608 0] ------- [REQUEST 9/9 0/0]
r 0.049058778 _8_ MAC  --- 0 ARP 28 [0 9000000 ffff0608 0] ------- [REQUEST 9/9 0/0]
r 0.049058783 _0_ MAC  --- 0 ARP 28 [0 9000000 ffff0608 0] ------- [REQUEST 9/9 0/0]
r 0.049058818 _6_ MAC  --- 0 ARP 28 [0 9000000 ffff0608 0] ------- [REQUEST 9/9 0/0]
r 0.049058841 _1_ MAC  --- 0 ARP 28 [0 9000000 ffff0608 0] ------- [REQUEST 9/9 0/0]
r 0.049058846 _2_ MAC  --- 0 ARP 28 [0 9000000 ffff0608 0] ------- [REQUEST 9/9 0/0]
r 0.049058854 _3_ MAC  --- 0 ARP 28 [0 9000000 ffff0608 0] ------- [REQUEST 9/9 0/0]
r 0.049058873 _4_ MAC  --- 0 ARP 28 [0 9000000 ffff0608 0] ------- [REQUEST 9/9 0/0]
s 0.049487241 _0_ MAC  --- 0 ARP 28 [0 0 608 0] ------- [REPLY 0/0 10/10]
r 0.049599337 _10_ MAC  --- 0 ARP 28 [0 0 608 0] ------- [REPLY 0/0 10/10]
s 0.049862640 _7_ MAC  --- 0 ARP 28 [0 7000000 ffff0608 0] ------- [REQUEST 7/7 0/0]
r 0.049974660 _9_ MAC  --- 0 ARP 28 [0 7000000 ffff0608 0] ------- [REQUEST 7/7 0/0]
r 0.049974671 _5_ MAC  --- 0 ARP 28 [0 7000000 ffff0608 0] ------- [REQUEST 7/7 0/0]
r 0.049974695 _10_ MAC  --- 0 ARP 28 [0 7000000 ffff0608 0] ------- [REQUEST 7/7 0/0]
r 0.049974701 _0_ MAC  --- 0 ARP 28 [0 7000000 ffff0608 0] ------- [REQUEST 7/7 0/0]
r 0.049974718 _8_ MAC  --- 0 ARP 28 [0 7000000 ffff0608 0] ------- [REQUEST 7/7 0/0]
r 0.049974731 _6_ MAC  --- 0 ARP 28 [0 7000000 ffff0608 0] ------- [REQUEST 7/7 0/0]
r 0.049974765 _1_ MAC  --- 0 ARP 28 [0 7000000 ffff0608 0] ------- [REQUEST 7/7 0/0]
r 0.049974767 _3_ MAC  --- 0 ARP 28 [0 7000000 ffff0608 0] ------- [REQUEST 7/7 0/0]
r 0.049974771 _2_ MAC  --- 0 ARP 28 [0 7000000 ffff0608 0] ------- [REQUEST 7/7 0/0]
r 0.049974786 _4_ MAC  --- 0 ARP 28 [0 7000000 ffff0608 0] ------- [REQUEST 7/7 0/0]
s 0.050976060 _5_ MAC  --- 0 ARP 28 [0 5000000 ffff0608 0] ------- [REQUEST 5/5 0/0]
r 0.051088091 _7_ MAC  --- 0 ARP 28 [0 5000000 ffff0608 0] ------- [REQUEST 5/5 0/0]
r 0.051088099 _0_ MAC  --- 0 ARP 28 [0 5000000 ffff0608 0] ------- [REQUEST 5/5 0/0]
r 0.051088110 _9_ MAC  --- 0 ARP 28 [0 5000000 ffff0608 0] ------- [REQUEST 5/5 0/0]
r 0.051088118 _10_ MAC  --- 0 ARP 28 [0 5000000 ffff0608 0] ------- [REQUEST 5/5 0/0]
r 0.051088127 _6_ MAC  --- 0 ARP 28 [0 5000000 ffff0608 0] ------- [REQUEST 5/5 0/0]
r 0.051088148 _8_ MAC  --- 0 ARP 28 [0 5000000 ffff0608 0] ------- [REQUEST 5/5 0/0]
r 0.051088156 _3_ MAC  --- 0 ARP 28 [0 5000000 ffff0608 0] ------- [REQUEST 5/5 0/0]
r 0.051088169 _1_ MAC  --- 0 ARP 28 [0 5000000 ffff0608 0] ------- [REQUEST 5/5 0/0]
r 0.051088175 _2_ MAC  --- 0 ARP 28 [0 5000000 ffff0608 0] ------- [REQUEST 5/5 0/0]
r 0.051088176 _4_ MAC  --- 0 ARP 28 [0 5000000 ffff0608 0] ------- [REQUEST 5/5 0/0]
D 0.051455610 _8_ IFQ  ARP 14 cbr 16 [0 8000000 8 0] ------- [8:0 0:0 32 0] [1] 0 0
s 0.053566170 _1_ MAC  --- 23 cbr 16 [0 1000000 8 0] ------- [1:0 0:0 32 0] [2] 0 0
r 0.053630241 _0_ MAC  --- 23 cbr 16 [0 1000000 8 0] ------- [1:0 0:0 32 0] [2] 0 0
s 0.054804337 _10_ MAC  --- 15 cbr 16 [0 a000000 8 0] ------- [10:0 0:0 32 0] [1] 0 0
r 0.054868433 _0_ MAC  --- 15 cbr 16 [0 a000000 8 0] ------- [10:0 0:0 32 0] [1] 0 0
D 0.055005380 _6_ IFQ  ARP 16 cbr 16 [0 6000000 8 0] ------- [6:0 0:0 32 0] [1] 0 0
s 0.055759812 _4_ MAC  --- 0 ARP 28 [0 4000000 ffff0608 0] ------- [REQUEST 4/4 0/0]
r 0.055871835 _3_ MAC  --- 0 ARP 28 [0 4000000 ffff0608 0] ------- [REQUEST 4/4 0/0]
r 0.055871899 _6_ MAC  --- 0 ARP 28 [0 4000000 ffff0608 0] ------- [REQUEST 4/4 0/0]
r 0.055871911 _0_ MAC  --- 0 ARP 28 [0 4000000 ffff0608 0] ------- [REQUEST 4/4 0/0]
r 0.055871928 _5_ MAC  --- 0 ARP 28 [0 4000000 ffff0608 0] ------- [REQUEST 4/4 0/0]
r 0.055871930 _1_ MAC  --- 0 ARP 28 [0 4000000 ffff0608 0] ------- [REQUEST 4/4 0/0]
r 0.055871935 _2_ MAC  --- 0 ARP 28 [0 4000000 ffff0608 0] ------- [REQUEST 4/4 0/0]
r 0.055871958 _7_ MAC  --- 0 ARP 28 [0 4000000 ffff0608 0] ------- [REQUEST 4/4 0/0]
r 0.055871959 _10_ MAC  --- 0 ARP 28 [0 4000000 ffff0608 0] ------- [REQUEST 4/4 0/0]
r 0.055871977 _9_ MAC  --- 0 ARP 28 [0 4000000 ffff0608 0] ------- [REQUEST 4/4 0/0]
r 0.055871986 _8_ MAC  --- 0 ARP 28 [0 4000000 ffff0608 0] ------- [REQUEST 4/4 0/0]
s 0.056868337 _10_ MAC  --- 25 cbr 16 [0 a000000 8 0] ------- [10:0 0:0 32 0] [2] 0 0
r 0.056932433 _0_ MAC  --- 25 cbr 16 [0 a000000 8 0] ------- [10:0 0:0 32 0] [2] 0 0
D 0.058457640 _7_ IFQ  ARP 18 cbr 16 [0 7000000 8 0] ------- [7:0 0:0 32 0] [1] 0 0
D 0.058971060 _5_ IFQ  ARP 19 cbr 16 [0 5000000 8 0] ------- [5:0 0:0 32 0] [1] 0 0
s 0.059700701 _2_ MAC  --- 20 cbr 16 [0 2000000 8 0] ------- [2:0 0:0 32 0] [2] 0 0
r 0.059764778 _0_ MAC  --- 20 cbr 16 [0 2000000 8 0] ------- [2:0 0:0 32 0] [2] 0 0
s 0.061610380 _6_ MAC  --- 0 ARP 28 [0 6000000 ffff0608 0] ------- [REQUEST 6/6 0/0]
r 0.061722444 _3_ MAC  --- 0 ARP 28 [0 6000000 ffff0608 0] ------- [REQUEST 6/6 0/0]
r 0.061722445 _10_ MAC  --- 0 ARP 28 [0 6000000 ffff0608 0] ------- [REQUEST 6/6 0/0]
r 0.061722447 _5_ MAC  --- 0 ARP 28 [0 6000000 ffff0608 0] ------- [REQUEST 6/6 0/0]
r 0.061722465 _0_ MAC  --- 0 ARP 28 [0 6000000 ffff0608 0] ------- [REQUEST 6/6 0/0]
r 0.061722467 _4_ MAC  --- 0 ARP 28 [0 6000000 ffff0608 0] ------- [REQUEST 6/6 0/0]
r 0.061722471 _7_ MAC  --- 0 ARP 28 [0 6000000 ffff0608 0] ------- [REQUEST 6/6 0/0]
r 0.061722490 _9_ MAC  --- 0 ARP 28 [0 6000000 ffff0608 0] ------- [REQUEST 6/6 0/0]
r 0.061722527 _1_ MAC  --- 0 ARP 28 [0 6000000 ffff0608 0] ------- [REQUEST 6/6 0/0]
r 0.061722533 _8_ MAC  --- 0 ARP 28 [0 6000000 ffff0608 0] ------- [REQUEST 6/6 0/0]
r 0.061722534 _2_ MAC  --- 0 ARP 28 [0 6000000 ffff0608 0] ------- [REQUEST 6/6 0/0]
s 0.062692326 _3_ MAC  --- 17 cbr 16 [0 3000000 8 0] ------- [3:0 0:0 32 0] [1] 0 0
r 0.062756412 _0_ MAC  --- 17 cbr 16 [0 3000000 8 0] ------- [3:0 0:0 32 0] [1] 0 0
s 0.064860610 _8_ MAC  --- 0 ARP 28 [0 8000000 ffff0608 0] ------- [REQUEST 8/8 0/0]
r 0.064972680 _9_ MAC  --- 0 ARP 28 [0 8000000 ffff0608 0] ------- [REQUEST 8/8 0/0]
r 0.064972687 _0_ MAC  --- 0 ARP 28 [0 8000000 ffff0608 0] ------- [REQUEST 8/8 0/0]
r 0.064972688 _7_ MAC  --- 0 ARP 28 [0 8000000 ffff0608 0] ------- [REQUEST 8/8 0/0]
r 0.064972698 _5_ MAC  --- 0 ARP 28 [0 8000000 ffff0608 0] ------- [REQUEST 8/8 0/0]
r 0.064972701 _1_ MAC  --- 0 ARP 28 [0 8000000 ffff0608 0] ------- [REQUEST 8/8 0/0]
r 0.064972703 _2_ MAC  --- 0 ARP 28 [0 8000000 ffff0608 0] ------- [REQUEST 8/8 0/0]
r 0.064972743 _10_ MAC  --- 0 ARP 28 [0 8000000 ffff0608 0] ------- [REQUEST 8/8 0/0]
r 0.064972763 _6_ MAC  --- 0 ARP 28 [0 8000000 ffff0608 0] ------- [REQUEST 8/8 0/0]
r 0.064972772 _3_ MAC  --- 0 ARP 28 [0 8000000 ffff0608 0] ------- [REQUEST 8/8 0/0]
r 0.064972784 _4_ MAC  --- 0 ARP 28 [0 8000000 ffff0608 0] ------- [REQUEST 8/8 0/0]
D 0.065741708 _9_ IFQ  ARP 21 cbr 16 [0 9000000 8 0] ------- [9:0 0:0 32 0] [2] 0 0
D 0.065741708 _9_ IFQ  ARP 31 cbr 16 [0 9000000 8 0] ------- [9:0 0:0 32 0] [3] 0 0
s 0.068300701 _2_ MAC  --- 30 cbr 16 [0 2000000 8 0] ------- [2:0 0:0 32 0] [3] 0 0
r 0.068364778 _0_ MAC  --- 30 cbr 16 [0 2000000 8 0] ------- [2:0 0:0 32 0] [3] 0 0
D 0.068754812 _4_ IFQ  ARP 22 cbr 16 [0 4000000 8 0] ------- [4:0 0:0 32 0] [2] 0 0
D 0.068754812 _4_ IFQ  ARP 32 cbr 16 [0 4000000 8 0] ------- [4:0 0:0 32 0] [3] 0 0
s 0.068776060 _5_ MAC  --- 0 ARP 28 [0 5000000 ffff0608 0] ------- [REQUEST 5/5 0/0]
r 0.068888091 _7_ MAC  --- 0 ARP 28 [0 5000000 ffff0608 0] ------- [REQUEST 5/5 0/0]
r 0.068888099 _0_ MAC  --- 0 ARP 28 [0 5000000 ffff0608 0] ------- [REQUEST 5/5 0/0]
r 0.068888110 _9_ MAC  --- 0 ARP 28 [0 5000000 ffff0608 0] ------- [REQUEST 5/5 0/0]
r 0.068888118 _10_ MAC  --- 0 ARP 28 [0 5000000 ffff0608 0] ------- [REQUEST 5/5 0/0]
r 0.068888127 _6_ MAC  --- 0 ARP 28 [0 5000000 ffff0608 0] ------- [REQUEST 5/5 0/0]
r 0.068888148 _8_ MAC  --- 0 ARP 28 [0 5000000 ffff0608 0] ------- [REQUEST 5/5 0/0]
r 0.068888156 _3_ MAC  --- 0 ARP 28 [0 5000000 ffff0608 0] ------- [REQUEST 5/5 0/0]
r 0.068888169 _1_ MAC  --- 0 ARP 28 [0 5000000 ffff0608 0] ------- [REQUEST 5/5 0/0]
r 0.068888175 _2_ MAC  --- 0 ARP 28 [0 5000000 ffff0608 0] ------- [REQUEST 5/5 0/0]
r 0.068888176 _4_ MAC  --- 0 ARP 28 [0 5000000 ffff0608 0] ------- [REQUEST 5/5 0/0]
s 0.068999241 _0_ MAC  --- 0 ARP 28 [0 0 608 0] ------- [REPLY 0/0 8/8]
r 0.069111317 _8_ MAC  --- 0 ARP 28 [0 0 608 0] ------- [REPLY 0/0 8/8]
s 0.074262640 _7_ MAC  --- 0 ARP 28 [0 7000000 ffff0608 0] ------- [REQUEST 7/7 0/0]
r 0.074374660 _9_ MAC  --- 0 ARP 28 [0 7000000 ffff0608 0] ------- [REQUEST 7/7 0/0]
r 0.074374671 _5_ MAC  --- 0 ARP 28 [0 7000000 ffff0608 0] ------- [REQUEST 7/7 0/0]
r 0.074374695 _10_ MAC  --- 0 ARP 28 [0 7000000 ffff0608 0] ------- [REQUEST 7/7 0/0]
r 0.074374701 _0_ MAC  --- 0 ARP 28 [0 7000000 ffff0608 0] ------- [REQUEST 7/7 0/0]
r 0.074374718 _8_ MAC  --- 0 ARP 28 [0 7000000 ffff0608 0] ------- [REQUEST 7/7 0/0]
r 0.074374731 _6_ MAC  --- 0 ARP 28 [0 7000000 ffff0608 0] ------- [REQUEST 7/7 0/0]
r 0.074374765 _1_ MAC  --- 0 ARP 28 [0 7000000 ffff0608 0] ------- [REQUEST 7/7 0/0]
r 0.074374767 _3_ MAC  --- 0 ARP 28 [0 7000000 ffff0608 0] ------- [REQUEST 7/7 0/0]
r 0.074374771 _2_ MAC  --- 0 ARP 28 [0 7000000 ffff0608 0] ------- [REQUEST 7/7 0/0]
r 0.074374786 _4_ MAC  --- 0 ARP 28 [0 7000000 ffff0608 0] ------- [REQUEST 7/7 0/0]
D 0.075005380 _6_ IFQ  ARP 26 cbr 16 [0 6000000 8 0] ------- [6:0 0:0 32 0] [2] 0 0
D 0.075005380 _6_ IFQ  ARP 36 cbr 16 [0 6000000 8 0] ------- [6:0 0:0 32 0] [3] 0 0
D 0.078457640 _7_ IFQ  ARP 28 cbr 16 [0 7000000 8 0] ------- [7:0 0:0 32 0] [2] 0 0
D 0.078457640 _7_ IFQ  ARP 38 cbr 16 [0 7000000 8 0] ------- [7:0 0:0 32 0] [3] 0 0
s 0.078556326 _3_ MAC  --- 27 cbr 16 [0 3000000 8 0] ------- [3:0 0:0 32 0] [2] 0 0
r 0.078620412 _0_ MAC  --- 27 cbr 16 [0 3000000 8 0] ------- [3:0 0:0 32 0] [2] 0 0
D 0.078971060 _5_ IFQ  ARP 29 cbr 16 [0 5000000 8 0] ------- [5:0 0:0 32 0] [2] 0 0
D 0.078971060 _5_ IFQ  ARP 39 cbr 16 [0 5000000 8 0] ------- [5:0 0:0 32 0] [3] 0 0
s 0.081597630 _10_ MAC  --- 35 cbr 16 [0 a000000 8 0] ------- [10:0 0:0 32 0] [3] 0 0
r 0.081661726 _0_ MAC  --- 35 cbr 16 [0 a000000 8 0] ------- [10:0 0:0 32 0] [3] 0 0
s 0.082511241 _0_ MAC  --- 0 ARP 28 [0 0 608 0] ------- [REPLY 0/0 6/6]
r 0.082623326 _6_ MAC  --- 0 ARP 28 [0 0 608 0] ------- [REPLY 0/0 6/6]
s 0.083516317 _8_ MAC  --- 24 cbr 16 [0 8000000 8 0] ------- [8:0 0:0 32 0] [2] 0 0
r 0.083580394 _0_ MAC  --- 24 cbr 16 [0 8000000 8 0] ------- [8:0 0:0 32 0] [2] 0 0
s 0.089180317 _8_ MAC  --- 34 cbr 16 [0 8000000 8 0] ------- [8:0 0:0 32 0] [3] 0 0
r 0.089244394 _0_ MAC  --- 34 cbr 16 [0 8000000 8 0] ------- [8:0 0:0 32 0] [3] 0 0
s 0.089766170 _1_ MAC  --- 33 cbr 16 [0 1000000 8 0] ------- [1:0 0:0 32 0] [3] 0 0
r 0.089830241 _0_ MAC  --- 33 cbr 16 [0 1000000 8 0] ------- [1:0 0:0 32 0] [3] 0 0
s 0.091366170 _1_ MAC  --- 43 cbr 16 [0 1000000 8 0] ------- [1:0 0:0 32 0] [4] 0 0
r 0.091430241 _0_ MAC  --- 43 cbr 16 [0 1000000 8 0] ------- [1:0 0:0 32 0] [4] 0 0
s 0.091623241 _0_ MAC  --- 0 ARP 28 [0 0 608 0] ------- [REPLY 0/0 9/9]
r 0.091735316 _9_ MAC  --- 0 ARP 28 [0 0 608 0] ------- [REPLY 0/0 9/9]
s 0.093335241 _0_ MAC  --- 0 ARP 28 [0 0 608 0] ------- [REPLY 0/0 7/7]
r 0.093447302 _7_ MAC  --- 0 ARP 28 [0 0 608 0] ------- [REPLY 0/0 7/7]
s 0.095620326 _3_ MAC  --- 37 cbr 16 [0 3000000 8 0] ------- [3:0 0:0 32 0] [3] 0 0
r 0.095684412 _0_ MAC  --- 37 cbr 16 [0 3000000 8 0] ------- [3:0 0:0 32 0] [3] 0 0
s 0.100159812 _4_ MAC  --- 0 ARP 28 [0 4000000 ffff0608 0] ------- [REQUEST 4/4 0/0]
r 0.100271835 _3_ MAC  --- 0 ARP 28 [0 4000000 ffff0608 0] ------- [REQUEST 4/4 0/0]
r 0.100271899 _6_ MAC  --- 0 ARP 28 [0 4000000 ffff0608 0] ------- [REQUEST 4/4 0/0]
r 0.100271911 _0_ MAC  --- 0 ARP 28 [0 4000000 ffff0608 0] ------- [REQUEST 4/4 0/0]
r 0.100271928 _5_ MAC  --- 0 ARP 28 [0 4000000 ffff0608 0] ------- [REQUEST 4/4 0/0]
r 0.100271930 _1_ MAC  --- 0 ARP 28 [0 4000000 ffff0608 0] ------- [REQUEST 4/4 0/0]
r 0.100271935 _2_ MAC  --- 0 ARP 28 [0 4000000 ffff0608 0] ------- [REQUEST 4/4 0/0]
r 0.100271958 _7_ MAC  --- 0 ARP 28 [0 4000000 ffff0608 0] ------- [REQUEST 4/4 0/0]
r 0.100271959 _10_ MAC  --- 0 ARP 28 [0 4000000 ffff0608 0] ------- [REQUEST 4/4 0/0]
r 0.100271977 _9_ MAC  --- 0 ARP 28 [0 4000000 ffff0608 0] ------- [REQUEST 4/4 0/0]
r 0.100271986 _8_ MAC  --- 0 ARP 28 [0 4000000 ffff0608 0] ------- [REQUEST 4/4 0/0]
s 0.100720700 _3_ MAC  --- 47 cbr 16 [0 3000000 8 0] ------- [3:0 0:0 32 0] [4] 0 0
r 0.100784786 _0_ MAC  --- 47 cbr 16 [0 3000000 8 0] ------- [3:0 0:0 32 0] [4] 0 0
s 0.102080610 _8_ MAC  --- 44 cbr 16 [0 8000000 8 0] ------- [8:0 0:0 32 0] [4] 0 0
r 0.102144687 _0_ MAC  --- 44 cbr 16 [0 8000000 8 0] ------- [8:0 0:0 32 0] [4] 0 0
s 0.102247241 _0_ MAC  --- 0 ARP 28 [0 0 608 0] ------- [REPLY 0/0 8/8]
s 0.102300701 _2_ MAC  --- 40 cbr 16 [0 2000000 8 0] ------- [2:0 0:0 32 0] [4] 0 0
D 0.102364707 _1_ MAC  COL 40 cbr 16 [0 2000000 8 0] ------- [2:0 0:0 32 0] [4] 0 0
r 0.102364778 _0_ MAC  --- 40 cbr 16 [0 2000000 8 0] ------- [2:0 0:0 32 0] [4] 0 0
D 0.102364794 _8_ MAC  COL 40 cbr 16 [0 2000000 8 0] ------- [2:0 0:0 32 0] [4] 0 0
D 0.102364816 _5_ MAC  COL 40 cbr 16 [0 2000000 8 0] ------- [2:0 0:0 32 0] [4] 0 0
D 0.102364824 _4_ MAC  COL 40 cbr 16 [0 2000000 8 0] ------- [2:0 0:0 32 0] [4] 0 0
D 0.102364824 _3_ MAC  COL 40 cbr 16 [0 2000000 8 0] ------- [2:0 0:0 32 0] [4] 0 0
D 0.102364832 _7_ MAC  COL 40 cbr 16 [0 2000000 8 0] ------- [2:0 0:0 32 0] [4] 0 0
D 0.102364839 _9_ MAC  COL 40 cbr 16 [0 2000000 8 0] ------- [2:0 0:0 32 0] [4] 0 0
D 0.102364855 _6_ MAC  COL 40 cbr 16 [0 2000000 8 0] ------- [2:0 0:0 32 0] [4] 0 0