s 0.001584657 _7_ MAC  --- 0 ARP 28 [0 7000000 ffff0608 0] ------- [REQUEST 7/7 0/0]
r 0.001696681 _1_ MAC  --- 0 ARP 28 [0 7000000 ffff0608 0] ------- [REQUEST 7/7 0/0]
r 0.001696686 _8_ MAC  --- 0 ARP 28 [0 7000000 ffff0608 0] ------- [REQUEST 7/7 0/0]
r 0.001696690 _0_ MAC  --- 0 ARP 28 [0 7000000 ffff0608 0] ------- [REQUEST 7/7 0/0]
r 0.001696706 _4_ MAC  --- 0 ARP 28 [0 7000000 ffff0608 0] ------- [REQUEST 7/7 0/0]
r 0.001696722 _6_ MAC  --- 0 ARP 28 [0 7000000 ffff0608 0] ------- [REQUEST 7/7 0/0]
r 0.001696752 _2_ MAC  --- 0 ARP 28 [0 7000000 ffff0608 0] ------- [REQUEST 7/7 0/0]
r 0.001696762 _5_ MAC  --- 0 ARP 28 [0 7000000 ffff0608 0] ------- [REQUEST 7/7 0/0]
r 0.001696769 _3_ MAC  --- 0 ARP 28 [0 7000000 ffff0608 0] ------- [REQUEST 7/7 0/0]
r 0.001696771 _9_ MAC  --- 0 ARP 28 [0 7000000 ffff0608 0] ------- [REQUEST 7/7 0/0]
r 0.001696798 _10_ MAC  --- 0 ARP 28 [0 7000000 ffff0608 0] ------- [REQUEST 7/7 0/0]
s 0.007701690 _0_ MAC  --- 0 ARP 28 [0 0 608 0] ------- [REPLY 0/0 7/7]
r 0.007813723 _7_ MAC  --- 0 ARP 28 [0 0 608 0] ------- [REPLY 0/0 7/7]
s 0.009984657 _7_ MAC  --- 0 ARP 28 [0 7000000 ffff0608 0] ------- [REQUEST 7/7 0/0]
r 0.010096681 _1_ MAC  --- 0 ARP 28 [0 7000000 ffff0608 0] ------- [REQUEST 7/7 0/0]
r 0.010096686 _8_ MAC  --- 0 ARP 28 [0 7000000 ffff0608 0] ------- [REQUEST 7/7 0/0]
r 0.010096690 _0_ MAC  --- 0 ARP 28 [0 7000000 ffff0608 0] ------- [REQUEST 7/7 0/0]
r 0.010096706 _4_ MAC  --- 0 ARP 28 [0 7000000 ffff0608 0] ------- [REQUEST 7/7 0/0]
r 0.010096722 _6_ MAC  --- 0 ARP 28 [0 7000000 ffff0608 0] ------- [REQUEST 7/7 0/0]
r 0.010096752 _2_ MAC  --- 0 ARP 28 [0 7000000 ffff0608 0] ------- [REQUEST 7/7 0/0]
r 0.010096762 _5_ MAC  --- 0 ARP 28 [0 7000000 ffff0608 0] ------- [REQUEST 7/7 0/0]
r 0.010096769 _3_ MAC  --- 0 ARP 28 [0 7000000 ffff0608 0] ------- [REQUEST 7/7 0/0]
r 0.010096771 _9_ MAC  --- 0 ARP 28 [0 7000000 ffff0608 0] ------- [REQUEST 7/7 0/0]
r 0.010096798 _10_ MAC  --- 0 ARP 28 [0 7000000 ffff0608 0] ------- [REQUEST 7/7 0/0]
s 0.010122848 _8_ MAC  --- 0 ARP 28 [0 8000000 ffff0608 0] ------- [REQUEST 8/8 0/0]
r 0.010234864 _0_ MAC  --- 0 ARP 28 [0 8000000 ffff0608 0] ------- [REQUEST 8/8 0/0]
r 0.010234876 _7_ MAC  --- 0 ARP 28 [0 8000000 ffff0608 0] ------- [REQUEST 8/8 0/0]
r 0.010234896 _4_ MAC  --- 0 ARP 28 [0 8000000 ffff0608 0] ------- [REQUEST 8/8 0/0]
r 0.010234900 _1_ MAC  --- 0 ARP 28 [0 8000000 ffff0608 0] ------- [REQUEST 8/8 0/0]
r 0.010234914 _2_ MAC  --- 0 ARP 28 [0 8000000 ffff0608 0] ------- [REQUEST 8/8 0/0]
r 0.010234927 _5_ MAC  --- 0 ARP 28 [0 8000000 ffff0608 0] ------- [REQUEST 8/8 0/0]
r 0.010234935 _3_ MAC  --- 0 ARP 28 [0 8000000 ffff0608 0] ------- [REQUEST 8/8 0/0]
r 0.010234940 _6_ MAC  --- 0 ARP 28 [0 8000000 ffff0608 0] ------- [REQUEST 8/8 0/0]
r 0.010234962 _10_ MAC  --- 0 ARP 28 [0 8000000 ffff0608 0] ------- [REQUEST 8/8 0/0]
r 0.010234962 _9_ MAC  --- 0 ARP 28 [0 8000000 ffff0608 0] ------- [REQUEST 8/8 0/0]
s 0.012759010 _1_ MAC  --- 0 ARP 28 [0 1000000 ffff0608 0] ------- [REQUEST 1/1 0/0]
s 0.012766380 _4_ MAC  --- 0 ARP 28 [0 4000000 ffff0608 0] ------- [REQUEST 4/4 0/0]
r 0.012871075 _4_ MAC  --- 0 ARP 28 [0 1000000 ffff0608 0] ------- [REQUEST 1/1 0/0]
D 0.012878413 _0_ MAC  COL 0 ARP 28 [0 4000000 ffff0608 0] ------- [REQUEST 4/4 0/0]
D 0.012878428 _8_ MAC  COL 0 ARP 28 [0 4000000 ffff0608 0] ------- [REQUEST 4/4 0/0]
D 0.012878428 _7_ MAC  COL 0 ARP 28 [0 4000000 ffff0608 0] ------- [REQUEST 4/4 0/0]
r 0.012878445 _1_ MAC  --- 0 ARP 28 [0 4000000 ffff0608 0] ------- [REQUEST 4/4 0/0]
D 0.012878447 _9_ MAC  COL 0 ARP 28 [0 4000000 ffff0608 0] ------- [REQUEST 4/4 0/0]
D 0.012878462 _5_ MAC  COL 0 ARP 28 [0 4000000 ffff0608 0] ------- [REQUEST 4/4 0/0]
D 0.012878467 _2_ MAC  COL 0 ARP 28 [0 4000000 ffff0608 0] ------- [REQUEST 4/4 0/0]
D 0.012878469 _3_ MAC  COL 0 ARP 28 [0 4000000 ffff0608 0] ------- [REQUEST 4/4 0/0]
D 0.012878483 _6_ MAC  COL 0 ARP 28 [0 4000000 ffff0608 0] ------- [REQUEST 4/4 0/0]
D 0.012878497 _10_ MAC  COL 0 ARP 28 [0 4000000 ffff0608 0] ------- [REQUEST 4/4 0/0]
s 0.012922848 _8_ MAC  --- 0 ARP 28 [0 8000000 ffff0608 0] ------- [REQUEST 8/8 0/0]
r 0.013034864 _0_ MAC  --- 0 ARP 28 [0 8000000 ffff0608 0] ------- [REQUEST 8/8 0/0]
r 0.013034876 _7_ MAC  --- 0 ARP 28 [0 8000000 ffff0608 0] ------- [REQUEST 8/8 0/0]
r 0.013034896 _4_ MAC  --- 0 ARP 28 [0 8000000 ffff0608 0] ------- [REQUEST 8/8 0/0]
r 0.013034900 _1_ MAC  --- 0 ARP 28 [0 8000000 ffff0608 0] ------- [REQUEST 8/8 0/0]
r 0.013034914 _2_ MAC  --- 0 ARP 28 [0 8000000 ffff0608 0] ------- [REQUEST 8/8 0/0]
r 0.013034927 _5_ MAC  --- 0 ARP 28 [0 8000000 ffff0608 0] ------- [REQUEST 8/8 0/0]
r 0.013034935 _3_ MAC  --- 0 ARP 28 [0 8000000 ffff0608 0] ------- [REQUEST 8/8 0/0]
r 0.013034940 _6_ MAC  --- 0 ARP 28 [0 8000000 ffff0608 0] ------- [REQUEST 8/8 0/0]
r 0.013034962 _10_ MAC  --- 0 ARP 28 [0 8000000 ffff0608 0] ------- [REQUEST 8/8 0/0]
r 0.013034962 _9_ MAC  --- 0 ARP 28 [0 8000000 ffff0608 0] ------- [REQUEST 8/8 0/0]
s 0.014886570 _2_ MAC  --- 0 ARP 28 [0 2000000 ffff0608 0] ------- [REQUEST 2/2 0/0]
r 0.014998601 _5_ MAC  --- 0 ARP 28 [0 2000000 ffff0608 0] ------- [REQUEST 2/2 0/0]
r 0.014998605 _3_ MAC  --- 0 ARP 28 [0 2000000 ffff0608 0] ------- [REQUEST 2/2 0/0]
r 0.014998624 _10_ MAC  --- 0 ARP 28 [0 2000000 ffff0608 0] ------- [REQUEST 2/2 0/0]
r 0.014998636 _0_ MAC  --- 0 ARP 28 [0 2000000 ffff0608 0] ------- [REQUEST 2/2 0/0]
r 0.014998636 _8_ MAC  --- 0 ARP 28 [0 2000000 ffff0608 0] ------- [REQUEST 2/2 0/0]
r 0.014998657 _4_ MAC  --- 0 ARP 28 [0 2000000 ffff0608 0] ------- [REQUEST 2/2 0/0]
r 0.014998664 _7_ MAC  --- 0 ARP 28 [0 2000000 ffff0608 0] ------- [REQUEST 2/2 0/0]
r 0.014998688 _1_ MAC  --- 0 ARP 28 [0 2000000 ffff0608 0] ------- [REQUEST 2/2 0/0]
r 0.014998703 _9_ MAC  --- 0 ARP 28 [0 2000000 ffff0608 0] ------- [REQUEST 2/2 0/0]
r 0.014998728 _6_ MAC  --- 0 ARP 28 [0 2000000 ffff0608 0] ------- [REQUEST 2/2 0/0]
s 0.015766380 _4_ MAC  --- 0 ARP 28 [0 4000000 ffff0608 0] ------- [REQUEST 4/4 0/0]
r 0.015878413 _0_ MAC  --- 0 ARP 28 [0 4000000 ffff0608 0] ------- [REQUEST 4/4 0/0]
r 0.015878428 _8_ MAC  --- 0 ARP 28 [0 4000000 ffff0608 0] ------- [REQUEST 4/4 0/0]
r 0.015878428 _7_ MAC  --- 0 ARP 28 [0 4000000 ffff0608 0] ------- [REQUEST 4/4 0/0]
r 0.015878445 _1_ MAC  --- 0 ARP 28 [0 4000000 ffff0608 0] ------- [REQUEST 4/4 0/0]
r 0.015878447 _9_ MAC  --- 0 ARP 28 [0 4000000 ffff0608 0] ------- [REQUEST 4/4 0/0]
r 0.015878462 _5_ MAC  --- 0 ARP 28 [0 4000000 ffff0608 0] ------- [REQUEST 4/4 0/0]
r 0.015878467 _2_ MAC  --- 0 ARP 28 [0 4000000 ffff0608 0] ------- [REQUEST 4/4 0/0]
r 0.015878469 _3_ MAC  --- 0 ARP 28 [0 4000000 ffff0608 0] ------- [REQUEST 4/4 0/0]
r 0.015878483 _6_ MAC  --- 0 ARP 28 [0 4000000 ffff0608 0] ------- [REQUEST 4/4 0/0]
r 0.015878497 _10_ MAC  --- 0 ARP 28 [0 4000000 ffff0608 0] ------- [REQUEST 4/4 0/0]
s 0.016101690 _0_ MAC  --- 0 ARP 28 [0 0 608 0] ------- [REPLY 0/0 7/7]
r 0.016213723 _7_ MAC  --- 0 ARP 28 [0 0 608 0] ------- [REPLY 0/0 7/7]
s 0.017098190 _3_ MAC  --- 0 ARP 28 [0 3000000 ffff0608 0] ------- [REQUEST 3/3 0/0]
r 0.017210197 _5_ MAC  --- 0 ARP 28 [0 3000000 ffff0608 0] ------- [REQUEST 3/3 0/0]
r 0.017210219 _10_ MAC  --- 0 ARP 28 [0 3000000 ffff0608 0] ------- [REQUEST 3/3 0/0]
r 0.017210225 _2_ MAC  --- 0 ARP 28 [0 3000000 ffff0608 0] ------- [REQUEST 3/3 0/0]
r 0.017210270 _0_ MAC  --- 0 ARP 28 [0 3000000 ffff0608 0] ------- [REQUEST 3/3 0/0]
r 0.017210277 _8_ MAC  --- 0 ARP 28 [0 3000000 ffff0608 0] ------- [REQUEST 3/3 0/0]
r 0.017210279 _4_ MAC  --- 0 ARP 28 [0 3000000 ffff0608 0] ------- [REQUEST 3/3 0/0]
r 0.017210302 _7_ MAC  --- 0 ARP 28 [0 3000000 ffff0608 0] ------- [REQUEST 3/3 0/0]
r 0.017210307 _9_ MAC  --- 0 ARP 28 [0 3000000 ffff0608 0] ------- [REQUEST 3/3 0/0]
r 0.017210326 _1_ MAC  --- 0 ARP 28 [0 3000000 ffff0608 0] ------- [REQUEST 3/3 0/0]
r 0.017210367 _6_ MAC  --- 0 ARP 28 [0 3000000 ffff0608 0] ------- [REQUEST 3/3 0/0]
s 0.017751810 _5_ MAC  --- 0 ARP 28 [0 5000000 ffff0608 0] ------- [REQUEST 5/5 0/0]
r 0.017863817 _3_ MAC  --- 0 ARP 28 [0 5000000 ffff0608 0] ------- [REQUEST 5/5 0/0]
r 0.017863841 _2_ MAC  --- 0 ARP 28 [0 5000000 ffff0608 0] ------- [REQUEST 5/5 0/0]
r 0.017863846 _10_ MAC  --- 0 ARP 28 [0 5000000 ffff0608 0] ------- [REQUEST 5/5 0/0]
r 0.017863882 _0_ MAC  --- 0 ARP 28 [0 5000000 ffff0608 0] ------- [REQUEST 5/5 0/0]
r 0.017863889 _8_ MAC  --- 0 ARP 28 [0 5000000 ffff0608 0] ------- [REQUEST 5/5 0/0]
r 0.017863892 _4_ MAC  --- 0 ARP 28 [0 5000000 ffff0608 0] ------- [REQUEST 5/5 0/0]
r 0.017863915 _7_ MAC  --- 0 ARP 28 [0 5000000 ffff0608 0] ------- [REQUEST 5/5 0/0]
r 0.017863923 _9_ MAC  --- 0 ARP 28 [0 5000000 ffff0608 0] ------- [REQUEST 5/5 0/0]
r 0.017863938 _1_ MAC  --- 0 ARP 28 [0 5000000 ffff0608 0] ------- [REQUEST 5/5 0/0]
r 0.017863980 _6_ MAC  --- 0 ARP 28 [0 5000000 ffff0608 0] ------- [REQUEST 5/5 0/0]
s 0.018096657 _7_ MAC  --- 0 cbr 16 [0 7000000 8 0] ------- [7:0 0:0 32 0] [0] 0 0
s 0.018151810 _5_ MAC  --- 0 ARP 28 [0 5000000 ffff0608 0] ------- [REQUEST 5/5 0/0]
D 0.018263817 _3_ MAC  COL 0 ARP 28 [0 5000000 ffff0608 0] ------- [REQUEST 5/5 0/0]
D 0.018263841 _2_ MAC  COL 0 ARP 28 [0 5000000 ffff0608 0] ------- [REQUEST 5/5 0/0]
D 0.018263846 _10_ MAC  COL 0 ARP 28 [0 5000000 ffff0608 0] ------- [REQUEST 5/5 0/0]
D 0.018263882 _0_ MAC  COL 0 ARP 28 [0 5000000 ffff0608 0] ------- [REQUEST 5/5 0/0]
D 0.018263889 _8_ MAC  COL 0 ARP 28 [0 5000000 ffff0608 0] ------- [REQUEST 5/5 0/0]
D 0.018263892 _4_ MAC  COL 0 ARP 28 [0 5000000 ffff0608 0] ------- [REQUEST 5/5 0/0]
r 0.018263915 _7_ MAC  --- 0 ARP 28 [0 5000000 ffff0608 0] ------- [REQUEST 5/5 0/0]
D 0.018263923 _9_ MAC  COL 0 ARP 28 [0 5000000 ffff0608 0] ------- [REQUEST 5/5 0/0]
D 0.018263980 _6_ MAC  COL 0 ARP 28 [0 5000000 ffff0608 0] ------- [REQUEST 5/5 0/0]
s 0.018613690 _0_ MAC  --- 0 ARP 28 [0 0 608 0] ------- [REPLY 0/0 7/7]
r 0.018725723 _7_ MAC  --- 0 ARP 28 [0 0 608 0] ------- [REPLY 0/0 7/7]
s 0.018937000 _6_ MAC  --- 0 ARP 28 [0 6000000 ffff0608 0] ------- [REQUEST 6/6 0/0]
r 0.019049042 _1_ MAC  --- 0 ARP 28 [0 6000000 ffff0608 0] ------- [REQUEST 6/6 0/0]
r 0.019049065 _7_ MAC  --- 0 ARP 28 [0 6000000 ffff0608 0] ------- [REQUEST 6/6 0/0]
r 0.019049092 _8_ MAC  --- 0 ARP 28 [0 6000000 ffff0608 0] ------- [REQUEST 6/6 0/0]
r 0.019049098 _0_ MAC  --- 0 ARP 28 [0 6000000 ffff0608 0] ------- [REQUEST 6/6 0/0]
r 0.019049103 _4_ MAC  --- 0 ARP 28 [0 6000000 ffff0608 0] ------- [REQUEST 6/6 0/0]
r 0.019049154 _9_ MAC  --- 0 ARP 28 [0 6000000 ffff0608 0] ------- [REQUEST 6/6 0/0]
r 0.019049158 _2_ MAC  --- 0 ARP 28 [0 6000000 ffff0608 0] ------- [REQUEST 6/6 0/0]
r 0.019049170 _5_ MAC  --- 0 ARP 28 [0 6000000 ffff0608 0] ------- [REQUEST 6/6 0/0]
r 0.019049177 _3_ MAC  --- 0 ARP 28 [0 6000000 ffff0608 0] ------- [REQUEST 6/6 0/0]
r 0.019049205 _10_ MAC  --- 0 ARP 28 [0 6000000 ffff0608 0] ------- [REQUEST 6/6 0/0]
s 0.019995140 _10_ MAC  --- 0 ARP 28 [0 a000000 ffff0608 0] ------- [REQUEST 10/10 0/0]
r 0.020107169 _3_ MAC  --- 0 ARP 28 [0 a000000 ffff0608 0] ------- [REQUEST 10/10 0/0]
r 0.020107176 _5_ MAC  --- 0 ARP 28 [0 a000000 ffff0608 0] ------- [REQUEST 10/10 0/0]
r 0.020107194 _2_ MAC  --- 0 ARP 28 [0 a000000 ffff0608 0] ------- [REQUEST 10/10 0/0]
r 0.020107248 _0_ MAC  --- 0 ARP 28 [0 a000000 ffff0608 0] ------- [REQUEST 10/10 0/0]
r 0.020107254 _8_ MAC  --- 0 ARP 28 [0 a000000 ffff0608 0] ------- [REQUEST 10/10 0/0]
r 0.020107257 _4_ MAC  --- 0 ARP 28 [0 a000000 ffff0608 0] ------- [REQUEST 10/10 0/0]
r 0.020107278 _9_ MAC  --- 0 ARP 28 [0 a000000 ffff0608 0] ------- [REQUEST 10/10 0/0]
r 0.020107280 _7_ MAC  --- 0 ARP 28 [0 a000000 ffff0608 0] ------- [REQUEST 10/10 0/0]
r 0.020107304 _1_ MAC  --- 0 ARP 28 [0 a000000 ffff0608 0] ------- [REQUEST 10/10 0/0]
r 0.020107345 _6_ MAC  --- 0 ARP 28 [0 a000000 ffff0608 0] ------- [REQUEST 10/10 0/0]
D 0.021161380 _4_ IFQ  ARP 1 cbr 16 [0 4000000 8 0] ------- [4:0 0:0 32 0] [0] 0 0
s 0.021686570 _2_ MAC  --- 0 ARP 28 [0 2000000 ffff0608 0] ------- [REQUEST 2/2 0/0]
r 0.021798601 _5_ MAC  --- 0 ARP 28 [0 2000000 ffff0608 0] ------- [REQUEST 2/2 0/0]
r 0.021798605 _3_ MAC  --- 0 ARP 28 [0 2000000 ffff0608 0] ------- [REQUEST 2/2 0/0]
r 0.021798624 _10_ MAC  --- 0 ARP 28 [0 2000000 ffff0608 0] ------- [REQUEST 2/2 0/0]
r 0.021798636 _0_ MAC  --- 0 ARP 28 [0 2000000 ffff0608 0] ------- [REQUEST 2/2 0/0]
r 0.021798636 _8_ MAC  --- 0 ARP 28 [0 2000000 ffff0608 0] ------- [REQUEST 2/2 0/0]
r 0.021798657 _4_ MAC  --- 0 ARP 28 [0 2000000 ffff0608 0] ------- [REQUEST 2/2 0/0]
r 0.021798664 _7_ MAC  --- 0 ARP 28 [0 2000000 ffff0608 0] ------- [REQUEST 2/2 0/0]
r 0.021798688 _1_ MAC  --- 0 ARP 28 [0 2000000 ffff0608 0] ------- [REQUEST 2/2 0/0]
r 0.021798703 _9_ MAC  --- 0 ARP 28 [0 2000000 ffff0608 0] ------- [REQUEST 2/2 0/0]
r 0.021798728 _6_ MAC  --- 0 ARP 28 [0 2000000 ffff0608 0] ------- [REQUEST 2/2 0/0]
s 0.023096657 _7_ MAC  --- 0 cbr 16 [0 7000000 8 0] ------- [7:0 0:0 32 0] [0] 0 0
r 0.023160690 _0_ MAC  --- 0 cbr 16 [0 7000000 8 0] ------- [7:0 0:0 32 0] [0] 0 0
s 0.024213690 _0_ MAC  --- 0 ARP 28 [0 0 608 0] ------- [REPLY 0/0 7/7]
r 0.024325723 _7_ MAC  --- 0 ARP 28 [0 0 608 0] ------- [REPLY 0/0 7/7]
s 0.025554930 _9_ MAC  --- 0 ARP 28 [0 9000000 ffff0608 0] ------- [REQUEST 9/9 0/0]
r 0.025666997 _4_ MAC  --- 0 ARP 28 [0 9000000 ffff0608 0] ------- [REQUEST 9/9 0/0]
r 0.025667029 _0_ MAC  --- 0 ARP 28 [0 9000000 ffff0608 0] ------- [REQUEST 9/9 0/0]
r 0.025667043 _5_ MAC  --- 0 ARP 28 [0 9000000 ffff0608 0] ------- [REQUEST 9/9 0/0]
r 0.025667044 _7_ MAC  --- 0 ARP 28 [0 9000000 ffff0608 0] ------- [REQUEST 9/9 0/0]
r 0.025667044 _8_ MAC  --- 0 ARP 28 [0 9000000 ffff0608 0] ------- [REQUEST 9/9 0/0]
r 0.025667047 _3_ MAC  --- 0 ARP 28 [0 9000000 ffff0608 0] ------- [REQUEST 9/9 0/0]
r 0.025667054 _1_ MAC  --- 0 ARP 28 [0 9000000 ffff0608 0] ------- [REQUEST 9/9 0/0]
r 0.025667063 _2_ MAC  --- 0 ARP 28 [0 9000000 ffff0608 0] ------- [REQUEST 9/9 0/0]
r 0.025667068 _10_ MAC  --- 0 ARP 28 [0 9000000 ffff0608 0] ------- [REQUEST 9/9 0/0]
r 0.025667084 _6_ MAC  --- 0 ARP 28 [0 9000000 ffff0608 0] ------- [REQUEST 9/9 0/0]
D 0.026081570 _2_ IFQ  ARP 2 cbr 16 [0 2000000 8 0] ------- [2:0 0:0 32 0] [0] 0 0
s 0.026360657 _7_ MAC  --- 10 cbr 16 [0 7000000 8 0] ------- [7:0 0:0 32 0] [1] 0 0
r 0.026424690 _0_ MAC  --- 10 cbr 16 [0 7000000 8 0] ------- [7:0 0:0 32 0] [1] 0 0
D 0.028317848 _8_ IFQ  ARP 3 cbr 16 [0 8000000 8 0] ------- [8:0 0:0 32 0] [0] 0 0
s 0.028486570 _2_ MAC  --- 0 ARP 28 [0 2000000 ffff0608 0] ------- [REQUEST 2/2 0/0]
s 0.028537000 _6_ MAC  --- 0 ARP 28 [0 6000000 ffff0608 0] ------- [REQUEST 6/6 0/0]
r 0.028598601 _5_ MAC  --- 0 ARP 28 [0 2000000 ffff0608 0] ------- [REQUEST 2/2 0/0]
r 0.028598605 _3_ MAC  --- 0 ARP 28 [0 2000000 ffff0608 0] ------- [REQUEST 2/2 0/0]
r 0.028598624 _10_ MAC  --- 0 ARP 28 [0 2000000 ffff0608 0] ------- [REQUEST 2/2 0/0]
r 0.028598728 _6_ MAC  --- 0 ARP 28 [0 2000000 ffff0608 0] ------- [REQUEST 2/2 0/0]
D 0.028649042 _1_ MAC  COL 0 ARP 28 [0 6000000 ffff0608 0] ------- [REQUEST 6/6 0/0]
D 0.028649065 _7_ MAC  COL 0 ARP 28 [0 6000000 ffff0608 0] ------- [REQUEST 6/6 0/0]
D 0.028649092 _8_ MAC  COL 0 ARP 28 [0 6000000 ffff0608 0] ------- [REQUEST 6/6 0/0]
D 0.028649098 _0_ MAC  COL 0 ARP 28 [0 6000000 ffff0608 0] ------- [REQUEST 6/6 0/0]
D 0.028649103 _4_ MAC  COL 0 ARP 28 [0 6000000 ffff0608 0] ------- [REQUEST 6/6 0/0]
D 0.028649154 _9_ MAC  COL 0 ARP 28 [0 6000000 ffff0608 0] ------- [REQUEST 6/6 0/0]
r 0.028649158 _2_ MAC  --- 0 ARP 28 [0 6000000 ffff0608 0] ------- [REQUEST 6/6 0/0]
s 0.029525690 _0_ MAC  --- 0 ARP 28 [0 0 608 0] ------- [REPLY 0/0 8/8]
s 0.029559010 _1_ MAC  --- 0 ARP 28 [0 1000000 ffff0608 0] ------- [REQUEST 1/1 0/0]
r 0.029637706 _8_ MAC  --- 0 ARP 28 [0 0 608 0] ------- [REPLY 0/0 8/8]
D 0.029671034 _7_ MAC  COL 0 ARP 28 [0 1000000 ffff0608 0] ------- [REQUEST 1/1 0/0]
D 0.029671052 _6_ MAC  COL 0 ARP 28 [0 1000000 ffff0608 0] ------- [REQUEST 1/1 0/0]
r 0.029671066 _0_ MAC  --- 0 ARP 28 [0 1000000 ffff0608 0] ------- [REQUEST 1/1 0/0]
D 0.029671075 _4_ MAC  COL 0 ARP 28 [0 1000000 ffff0608 0] ------- [REQUEST 1/1 0/0]
D 0.029671128 _2_ MAC  COL 0 ARP 28 [0 1000000 ffff0608 0] ------- [REQUEST 1/1 0/0]
D 0.029671134 _9_ MAC  COL 0 ARP 28 [0 1000000 ffff0608 0] ------- [REQUEST 1/1 0/0]
D 0.029671138 _5_ MAC  COL 0 ARP 28 [0 1000000 ffff0608 0] ------- [REQUEST 1/1 0/0]
D 0.029671146 _3_ MAC  COL 0 ARP 28 [0 1000000 ffff0608 0] ------- [REQUEST 1/1 0/0]
D 0.029671174 _10_ MAC  COL 0 ARP 28 [0 1000000 ffff0608 0] ------- [REQUEST 1/1 0/0]
s 0.029995140 _10_ MAC  --- 0 ARP 28 [0 a000000 ffff0608 0] ------- [REQUEST 10/10 0/0]
r 0.030107169 _3_ MAC  --- 0 ARP 28 [0 a000000 ffff0608 0] ------- [REQUEST 10/10 0/0]
r 0.030107176 _5_ MAC  --- 0 ARP 28 [0 a000000 ffff0608 0] ------- [REQUEST 10/10 0/0]
r 0.030107194 _2_ MAC  --- 0 ARP 28 [0 a000000 ffff0608 0] ------- [REQUEST 10/10 0/0]
r 0.030107248 _0_ MAC  --- 0 ARP 28 [0 a000000 ffff0608 0] ------- [REQUEST 10/10 0/0]
r 0.030107254 _8_ MAC  --- 0 ARP 28 [0 a000000 ffff0608 0] ------- [REQUEST 10/10 0/0]
r 0.030107257 _4_ MAC  --- 0 ARP 28 [0 a000000 ffff0608 0] ------- [REQUEST 10/10 0/0]
r 0.030107278 _9_ MAC  --- 0 ARP 28 [0 a000000 ffff0608 0] ------- [REQUEST 10/10 0/0]
r 0.030107280 _7_ MAC  --- 0 ARP 28 [0 a000000 ffff0608 0] ------- [REQUEST 10/10 0/0]
r 0.030107304 _1_ MAC  --- 0 ARP 28 [0 a000000 ffff0608 0] ------- [REQUEST 10/10 0/0]
r 0.030107345 _6_ MAC  --- 0 ARP 28 [0 a000000 ffff0608 0] ------- [REQUEST 10/10 0/0]
s 0.030160657 _7_ MAC  --- 10 cbr 16 [0 7000000 8 0] ------- [7:0 0:0 32 0] [1] 0 0
r 0.030224690 _0_ MAC  --- 10 cbr 16 [0 7000000 8 0] ------- [7:0 0:0 32 0] [1] 0 0
s 0.030298190 _3_ MAC  --- 0 ARP 28 [0 3000000 ffff0608 0] ------- [REQUEST 3/3 0/0]
s 0.030322848 _8_ MAC  --- 0 ARP 28 [0 8000000 ffff0608 0] ------- [REQUEST 8/8 0/0]
r 0.030410197 _5_ MAC  --- 0 ARP 28 [0 3000000 ffff0608 0] ------- [REQUEST 3/3 0/0]
r 0.030410219 _10_ MAC  --- 0 ARP 28 [0 3000000 ffff0608 0] ------- [REQUEST 3/3 0/0]
r 0.030410277 _8_ MAC  --- 0 ARP 28 [0 3000000 ffff0608 0] ------- [REQUEST 3/3 0/0]
D 0.030434864 _0_ MAC  COL 0 ARP 28 [0 8000000 ffff0608 0] ------- [REQUEST 8/8 0/0]
D 0.030434876 _7_ MAC  COL 0 ARP 28 [0 8000000 ffff0608 0] ------- [REQUEST 8/8 0/0]
D 0.030434896 _4_ MAC  COL 0 ARP 28 [0 8000000 ffff0608 0] ------- [REQUEST 8/8 0/0]
D 0.030434900 _1_ MAC  COL 0 ARP 28 [0 8000000 ffff0608 0] ------- [REQUEST 8/8 0/0]
D 0.030434914 _2_ MAC  COL 0 ARP 28 [0 8000000 ffff0608 0] ------- [REQUEST 8/8 0/0]
r 0.030434935 _3_ MAC  --- 0 ARP 28 [0 8000000 ffff0608 0] ------- [REQUEST 8/8 0/0]
D 0.030434940 _6_ MAC  COL 0 ARP 28 [0 8000000 ffff0608 0] ------- [REQUEST 8/8 0/0]
D 0.030434962 _9_ MAC  COL 0 ARP 28 [0 8000000 ffff0608 0] ------- [REQUEST 8/8 0/0]
s 0.030954930 _9_ MAC  --- 0 ARP 28 [0 9000000 ffff0608 0] ------- [REQUEST 9/9 0/0]
r 0.031066997 _4_ MAC  --- 0 ARP 28 [0 9000000 ffff0608 0] ------- [REQUEST 9/9 0/0]
r 0.031067029 _0_ MAC  --- 0 ARP 28 [0 9000000 ffff0608 0] ------- [REQUEST 9/9 0/0]
r 0.031067043 _5_ MAC  --- 0 ARP 28 [0 9000000 ffff0608 0] ------- [REQUEST 9/9 0/0]
r 0.031067044 _7_ MAC  --- 0 ARP 28 [0 9000000 ffff0608 0] ------- [REQUEST 9/9 0/0]
r 0.031067044 _8_ MAC  --- 0 ARP 28 [0 9000000 ffff0608 0] ------- [REQUEST 9/9 0/0]
r 0.031067047 _3_ MAC  --- 0 ARP 28 [0 9000000 ffff0608 0] ------- [REQUEST 9/9 0/0]
r 0.031067054 _1_ MAC  --- 0 ARP 28 [0 9000000 ffff0608 0] ------- [REQUEST 9/9 0/0]
r 0.031067063 _2_ MAC  --- 0 ARP 28 [0 9000000 ffff0608 0] ------- [REQUEST 9/9 0/0]
r 0.031067068 _10_ MAC  --- 0 ARP 28 [0 9000000 ffff0608 0] ------- [REQUEST 9/9 0/0]
r 0.031067084 _6_ MAC  --- 0 ARP 28 [0 9000000 ffff0608 0] ------- [REQUEST 9/9 0/0]
D 0.031590140 _10_ IFQ  ARP 4 cbr 16 [0 a000000 8 0] ------- [10:0 0:0 32 0] [0] 0 0
D 0.032154010 _1_ IFQ  ARP 5 cbr 16 [0 1000000 8 0] ------- [1:0 0:0 32 0] [0] 0 0
D 0.032346810 _5_ IFQ  ARP 6 cbr 16 [0 5000000 8 0] ------- [5:0 0:0 32 0] [0] 0 0
s 0.034922848 _8_ MAC  --- 0 ARP 28 [0 8000000 ffff0608 0] ------- [REQUEST 8/8 0/0]
r 0.035034864 _0_ MAC  --- 0 ARP 28 [0 8000000 ffff0608 0] ------- [REQUEST 8/8 0/0]
r 0.035034876 _7_ MAC  --- 0 ARP 28 [0 8000000 ffff0608 0] ------- [REQUEST 8/8 0/0]
r 0.035034896 _4_ MAC  --- 0 ARP 28 [0 8000000 ffff0608 0] ------- [REQUEST 8/8 0/0]
r 0.035034900 _1_ MAC  --- 0 ARP 28 [0 8000000 ffff0608 0] ------- [REQUEST 8/8 0/0]
r 0.035034914 _2_ MAC  --- 0 ARP 28 [0 8000000 ffff0608 0] ------- [REQUEST 8/8 0/0]
r 0.035034927 _5_ MAC  --- 0 ARP 28 [0 8000000 ffff0608 0] ------- [REQUEST 8/8 0/0]
r 0.035034935 _3_ MAC  --- 0 ARP 28 [0 8000000 ffff0608 0] ------- [REQUEST 8/8 0/0]
r 0.035034940 _6_ MAC  --- 0 ARP 28 [0 8000000 ffff0608 0] ------- [REQUEST 8/8 0/0]
r 0.035034962 _10_ MAC  --- 0 ARP 28 [0 8000000 ffff0608 0] ------- [REQUEST 8/8 0/0]
r 0.035034962 _9_ MAC  --- 0 ARP 28 [0 8000000 ffff0608 0] ------- [REQUEST 8/8 0/0]
s 0.036359010 _1_ MAC  --- 0 ARP 28 [0 1000000 ffff0608 0] ------- [REQUEST 1/1 0/0]
r 0.036471034 _7_ MAC  --- 0 ARP 28 [0 1000000 ffff0608 0] ------- [REQUEST 1/1 0/0]
r 0.036471052 _6_ MAC  --- 0 ARP 28 [0 1000000 ffff0608 0] ------- [REQUEST 1/1 0/0]
r 0.036471062 _8_ MAC  --- 0 ARP 28 [0 1000000 ffff0608 0] ------- [REQUEST 1/1 0/0]
r 0.036471066 _0_ MAC  --- 0 ARP 28 [0 1000000 ffff0608 0] ------- [REQUEST 1/1 0/0]
r 0.036471075 _4_ MAC  --- 0 ARP 28 [0 1000000 ffff0608 0] ------- [REQUEST 1/1 0/0]
r 0.036471128 _2_ MAC  --- 0 ARP 28 [0 1000000 ffff0608 0] ------- [REQUEST 1/1 0/0]
r 0.036471134 _9_ MAC  --- 0 ARP 28 [0 1000000 ffff0608 0] ------- [REQUEST 1/1 0/0]
r 0.036471138 _5_ MAC  --- 0 ARP 28 [0 1000000 ffff0608 0] ------- [REQUEST 1/1 0/0]
r 0.036471146 _3_ MAC  --- 0 ARP 28 [0 1000000 ffff0608 0] ------- [REQUEST 1/1 0/0]
r 0.036471174 _10_ MAC  --- 0 ARP 28 [0 1000000 ffff0608 0] ------- [REQUEST 1/1 0/0]
D 0.036493190 _3_ IFQ  ARP 7 cbr 16 [0 3000000 8 0] ------- [3:0 0:0 32 0] [0] 0 0
s 0.036766380 _4_ MAC  --- 0 ARP 28 [0 4000000 ffff0608 0] ------- [REQUEST 4/4 0/0]
r 0.036878413 _0_ MAC  --- 0 ARP 28 [0 4000000 ffff0608 0] ------- [REQUEST 4/4 0/0]
r 0.036878428 _8_ MAC  --- 0 ARP 28 [0 4000000 ffff0608 0] ------- [REQUEST 4/4 0/0]
r 0.036878428 _7_ MAC  --- 0 ARP 28 [0 4000000 ffff0608 0] ------- [REQUEST 4/4 0/0]
r 0.036878445 _1_ MAC  --- 0 ARP 28 [0 4000000 ffff0608 0] ------- [REQUEST 4/4 0/0]
r 0.036878447 _9_ MAC  --- 0 ARP 28 [0 4000000 ffff0608 0] ------- [REQUEST 4/4 0/0]
r 0.036878462 _5_ MAC  --- 0 ARP 28 [0 4000000 ffff0608 0] ------- [REQUEST 4/4 0/0]
r 0.036878467 _2_ MAC  --- 0 ARP 28 [0 4000000 ffff0608 0] ------- [REQUEST 4/4 0/0]
r 0.036878469 _3_ MAC  --- 0 ARP 28 [0 4000000 ffff0608 0] ------- [REQUEST 4/4 0/0]
r 0.036878483 _6_ MAC  --- 0 ARP 28 [0 4000000 ffff0608 0] ------- [REQUEST 4/4 0/0]
r 0.036878497 _10_ MAC  --- 0 ARP 28 [0 4000000 ffff0608 0] ------- [REQUEST 4/4 0/0]
D 0.037132000 _6_ IFQ  ARP 8 cbr 16 [0 6000000 8 0] ------- [6:0 0:0 32 0] [0] 0 0
D 0.038949930 _9_ IFQ  ARP 9 cbr 16 [0 9000000 8 0] ------- [9:0 0:0 32 0] [0] 0 0
s 0.039486570 _2_ MAC  --- 0 ARP 28 [0 2000000 ffff0608 0] ------- [REQUEST 2/2 0/0]
r 0.039598601 _5_ MAC  --- 0 ARP 28 [0 2000000 ffff0608 0] ------- [REQUEST 2/2 0/0]
r 0.039598605 _3_ MAC  --- 0 ARP 28 [0 2000000 ffff0608 0] ------- [REQUEST 2/2 0/0]
r 0.039598624 _10_ MAC  --- 0 ARP 28 [0 2000000 ffff0608 0] ------- [REQUEST 2/2 0/0]
r 0.039598636 _0_ MAC  --- 0 ARP 28 [0 2000000 ffff0608 0] ------- [REQUEST 2/2 0/0]
r 0.039598636 _8_ MAC  --- 0 ARP 28 [0 2000000 ffff0608 0] ------- [REQUEST 2/2 0/0]
r 0.039598657 _4_ MAC  --- 0 ARP 28 [0 2000000 ffff0608 0] ------- [REQUEST 2/2 0/0]
r 0.039598664 _7_ MAC  --- 0 ARP 28 [0 2000000 ffff0608 0] ------- [REQUEST 2/2 0/0]
r 0.039598688 _1_ MAC  --- 0 ARP 28 [0 2000000 ffff0608 0] ------- [REQUEST 2/2 0/0]
r 0.039598703 _9_ MAC  --- 0 ARP 28 [0 2000000 ffff0608 0] ------- [REQUEST 2/2 0/0]
r 0.039598728 _6_ MAC  --- 0 ARP 28 [0 2000000 ffff0608 0] ------- [REQUEST 2/2 0/0]
s 0.040404657 _7_ MAC  --- 20 cbr 16 [0 7000000 8 0] ------- [7:0 0:0 32 0] [2] 0 0
r 0.040468690 _0_ MAC  --- 20 cbr 16 [0 7000000 8 0] ------- [7:0 0:0 32 0] [2] 0 0
s 0.040966380 _4_ MAC  --- 0 ARP 28 [0 4000000 ffff0608 0] ------- [REQUEST 4/4 0/0]
r 0.041078413 _0_ MAC  --- 0 ARP 28 [0 4000000 ffff0608 0] ------- [REQUEST 4/4 0/0]
r 0.041078428 _8_ MAC  --- 0 ARP 28 [0 4000000 ffff0608 0] ------- [REQUEST 4/4 0/0]
r 0.041078428 _7_ MAC  --- 0 ARP 28 [0 4000000 ffff0608 0] ------- [REQUEST 4/4 0/0]
r 0.041078445 _1_ MAC  --- 0 ARP 28 [0 4000000 ffff0608 0] ------- [REQUEST 4/4 0/0]
r 0.041078447 _9_ MAC  --- 0 ARP 28 [0 4000000 ffff0608 0] ------- [REQUEST 4/4 0/0]
r 0.041078462 _5_ MAC  --- 0 ARP 28 [0 4000000 ffff0608 0] ------- [REQUEST 4/4 0/0]
r 0.041078467 _2_ MAC  --- 0 ARP 28 [0 4000000 ffff0608 0] ------- [REQUEST 4/4 0/0]
r 0.041078469 _3_ MAC  --- 0 ARP 28 [0 4000000 ffff0608 0] ------- [REQUEST 4/4 0/0]
r 0.041078483 _6_ MAC  --- 0 ARP 28 [0 4000000 ffff0608 0] ------- [REQUEST 4/4 0/0]
r 0.041078497 _10_ MAC  --- 0 ARP 28 [0 4000000 ffff0608 0] ------- [REQUEST 4/4 0/0]
D 0.041161380 _4_ IFQ  ARP 11 cbr 16 [0 4000000 8 0] ------- [4:0 0:0 32 0] [1] 0 0
s 0.041395140 _10_ MAC  --- 0 ARP 28 [0 a000000 ffff0608 0] ------- [REQUEST 10/10 0/0]
r 0.041507169 _3_ MAC  --- 0 ARP 28 [0 a000000 ffff0608 0] ------- [REQUEST 10/10 0/0]
r 0.041507176 _5_ MAC  --- 0 ARP 28 [0 a000000 ffff0608 0] ------- [REQUEST 10/10 0/0]
r 0.041507194 _2_ MAC  --- 0 ARP 28 [0 a000000 ffff0608 0] ------- [REQUEST 10/10 0/0]
r 0.041507248 _0_ MAC  --- 0 ARP 28 [0 a000000 ffff0608 0] ------- [REQUEST 10/10 0/0]
r 0.041507254 _8_ MAC  --- 0 ARP 28 [0 a000000 ffff0608 0] ------- [REQUEST 10/10 0/0]
r 0.041507257 _4_ MAC  --- 0 ARP 28 [0 a000000 ffff0608 0] ------- [REQUEST 10/10 0/0]
r 0.041507278 _9_ MAC  --- 0 ARP 28 [0 a000000 ffff0608 0] ------- [REQUEST 10/10 0/0]
r 0.041507280 _7_ MAC  --- 0 ARP 28 [0 a000000 ffff0608 0] ------- [REQUEST 10/10 0/0]
r 0.041507304 _1_ MAC  --- 0 ARP 28 [0 a000000 ffff0608 0] ------- [REQUEST 10/10 0/0]
r 0.041507345 _6_ MAC  --- 0 ARP 28 [0 a000000 ffff0608 0] ------- [REQUEST 10/10 0/0]
s 0.042234848 _8_ MAC  --- 13 cbr 16 [0 8000000 8 0] ------- [8:0 0:0 32 0] [1] 0 0
r 0.042298864 _0_ MAC  --- 13 cbr 16 [0 8000000 8 0] ------- [8:0 0:0 32 0] [1] 0 0
s 0.042737000 _6_ MAC  --- 0 ARP 28 [0 6000000 ffff0608 0] ------- [REQUEST 6/6 0/0]
s 0.042766380 _4_ MAC  --- 0 ARP 28 [0 4000000 ffff0608 0] ------- [REQUEST 4/4 0/0]
r 0.042849103 _4_ MAC  --- 0 ARP 28 [0 6000000 ffff0608 0] ------- [REQUEST 6/6 0/0]
D 0.042878413 _0_ MAC  COL 0 ARP 28 [0 4000000 ffff0608 0] ------- [REQUEST 4/4 0/0]
D 0.042878428 _8_ MAC  COL 0 ARP 28 [0 4000000 ffff0608 0] ------- [REQUEST 4/4 0/0]
D 0.042878428 _7_ MAC  COL 0 ARP 28 [0 4000000 ffff0608 0] ------- [REQUEST 4/4 0/0]
D 0.042878445 _1_ MAC  COL 0 ARP 28 [0 4000000 ffff0608 0] ------- [REQUEST 4/4 0/0]
D 0.042878447 _9_ MAC  COL 0 ARP 28 [0 4000000 ffff0608 0] ------- [REQUEST 4/4 0/0]
D 0.042878462 _5_ MAC  COL 0 ARP 28 [0 4000000 ffff0608 0] ------- [REQUEST 4/4 0/0]
D 0.042878467 _2_ MAC  COL 0 ARP 28 [0 4000000 ffff0608 0] ------- [REQUEST 4/4 0/0]
D 0.042878469 _3_ MAC  COL 0 ARP 28 [0 4000000 ffff0608 0] ------- [REQUEST 4/4 0/0]
r 0.042878483 _6_ MAC  --- 0 ARP 28 [0 4000000 ffff0608 0] ------- [REQUEST 4/4 0/0]
D 0.042878497 _10_ MAC  COL 0 ARP 28 [0 4000000 ffff0608 0] ------- [REQUEST 4/4 0/0]
s 0.043725690 _0_ MAC  --- 0 ARP 28 [0 0 608 0] ------- [REPLY 0/0 8/8]
r 0.043837706 _8_ MAC  --- 0 ARP 28 [0 0 608 0] ------- [REPLY 0/0 8/8]
s 0.045498190 _3_ MAC  --- 0 ARP 28 [0 3000000 ffff0608 0] ------- [REQUEST 3/3 0/0]
r 0.045610197 _5_ MAC  --- 0 ARP 28 [0 3000000 ffff0608 0] ------- [REQUEST 3/3 0/0]
r 0.045610219 _10_ MAC  --- 0 ARP 28 [0 3000000 ffff0608 0] ------- [REQUEST 3/3 0/0]
r 0.045610225 _2_ MAC  --- 0 ARP 28 [0 3000000 ffff0608 0] ------- [REQUEST 3/3 0/0]
r 0.045610270 _0_ MAC  --- 0 ARP 28 [0 3000000 ffff0608 0] ------- [REQUEST 3/3 0/0]
r 0.045610277 _8_ MAC  --- 0 ARP 28 [0 3000000 ffff0608 0] ------- [REQUEST 3/3 0/0]
r 0.045610279 _4_ MAC  --- 0 ARP 28 [0 3000000 ffff0608 0] ------- [REQUEST 3/3 0/0]
r 0.045610302 _7_ MAC  --- 0 ARP 28 [0 3000000 ffff0608 0] ------- [REQUEST 3/3 0/0]
r 0.045610307 _9_ MAC  --- 0 ARP 28 [0 3000000 ffff0608 0] ------- [REQUEST 3/3 0/0]
r 0.045610326 _1_ MAC  --- 0 ARP 28 [0 3000000 ffff0608 0] ------- [REQUEST 3/3 0/0]
r 0.045610367 _6_ MAC  --- 0 ARP 28 [0 3000000 ffff0608 0] ------- [REQUEST 3/3 0/0]
s 0.045751810 _5_ MAC  --- 0 ARP 28 [0 5000000 ffff0608 0] ------- [REQUEST 5/5 0/0]
r 0.045863817 _3_ MAC  --- 0 ARP 28 [0 5000000 ffff0608 0] ------- [REQUEST 5/5 0/0]
r 0.045863841 _2_ MAC  --- 0 ARP 28 [0 5000000 ffff0608 0] ------- [REQUEST 5/5 0/0]
r 0.045863846 _10_ MAC  --- 0 ARP 28 [0 5000000 ffff0608 0] ------- [REQUEST 5/5 0/0]
r 0.045863882 _0_ MAC  --- 0 ARP 28 [0 5000000 ffff0608 0] ------- [REQUEST 5/5 0/0]
r 0.045863889 _8_ MAC  --- 0 ARP 28 [0 5000000 ffff0608 0] ------- [REQUEST 5/5 0/0]
r 0.045863892 _4_ MAC  --- 0 ARP 28 [0 5000000 ffff0608 0] ------- [REQUEST 5/5 0/0]
r 0.045863915 _7_ MAC  --- 0 ARP 28 [0 5000000 ffff0608 0] ------- [REQUEST 5/5 0/0]
r 0.045863923 _9_ MAC  --- 0 ARP 28 [0 5000000 ffff0608 0] ------- [REQUEST 5/5 0/0]
r 0.045863938 _1_ MAC  --- 0 ARP 28 [0 5000000 ffff0608 0] ------- [REQUEST 5/5 0/0]
r 0.045863980 _6_ MAC  --- 0 ARP 28 [0 5000000 ffff0608 0] ------- [REQUEST 5/5 0/0]
D 0.046081570 _2_ IFQ  ARP 12 cbr 16 [0 2000000 8 0] ------- [2:0 0:0 32 0] [1] 0 0
s 0.046751810 _5_ MAC  --- 0 ARP 28 [0 5000000 ffff0608 0] ------- [REQUEST 5/5 0/0]
r 0.046863817 _3_ MAC  --- 0 ARP 28 [0 5000000 ffff0608 0] ------- [REQUEST 5/5 0/0]
r 0.046863841 _2_ MAC  --- 0 ARP 28 [0 5000000 ffff0608 0] ------- [REQUEST 5/5 0/0]
r 0.046863846 _10_ MAC  --- 0 ARP 28 [0 5000000 ffff0608 0] ------- [REQUEST 5/5 0/0]
r 0.046863882 _0_ MAC  --- 0 ARP 28 [0 5000000 ffff0608 0] ------- [REQUEST 5/5 0/0]
r 0.046863889 _8_ MAC  --- 0 ARP 28 [0 5000000 ffff0608 0] ------- [REQUEST 5/5 0/0]