s 0.003115392 _8_ MAC  --- 0 ARP 28 [0 8000000 ffff0608 0] ------- [REQUEST 8/8 0/0]
r 0.003227423 _7_ MAC  --- 0 ARP 28 [0 8000000 ffff0608 0] ------- [REQUEST 8/8 0/0]
r 0.003227425 _0_ MAC  --- 0 ARP 28 [0 8000000 ffff0608 0] ------- [REQUEST 8/8 0/0]
r 0.003227436 _4_ MAC  --- 0 ARP 28 [0 8000000 ffff0608 0] ------- [REQUEST 8/8 0/0]
r 0.003227445 _3_ MAC  --- 0 ARP 28 [0 8000000 ffff0608 0] ------- [REQUEST 8/8 0/0]
r 0.003227447 _1_ MAC  --- 0 ARP 28 [0 8000000 ffff0608 0] ------- [REQUEST 8/8 0/0]
r 0.003227453 _5_ MAC  --- 0 ARP 28 [0 8000000 ffff0608 0] ------- [REQUEST 8/8 0/0]
r 0.003227460 _6_ MAC  --- 0 ARP 28 [0 8000000 ffff0608 0] ------- [REQUEST 8/8 0/0]
r 0.003227475 _10_ MAC  --- 0 ARP 28 [0 8000000 ffff0608 0] ------- [REQUEST 8/8 0/0]
r 0.003227503 _2_ MAC  --- 0 ARP 28 [0 8000000 ffff0608 0] ------- [REQUEST 8/8 0/0]
r 0.003227504 _9_ MAC  --- 0 ARP 28 [0 8000000 ffff0608 0] ------- [REQUEST 8/8 0/0]
s 0.007824104 _7_ MAC  --- 0 ARP 28 [0 7000000 ffff0608 0] ------- [REQUEST 7/7 0/0]
r 0.007936135 _0_ MAC  --- 0 ARP 28 [0 7000000 ffff0608 0] ------- [REQUEST 7/7 0/0]
r 0.007936135 _8_ MAC  --- 0 ARP 28 [0 7000000 ffff0608 0] ------- [REQUEST 7/7 0/0]
r 0.007936143 _5_ MAC  --- 0 ARP 28 [0 7000000 ffff0608 0] ------- [REQUEST 7/7 0/0]
r 0.007936165 _4_ MAC  --- 0 ARP 28 [0 7000000 ffff0608 0] ------- [REQUEST 7/7 0/0]
r 0.007936166 _1_ MAC  --- 0 ARP 28 [0 7000000 ffff0608 0] ------- [REQUEST 7/7 0/0]
r 0.007936170 _6_ MAC  --- 0 ARP 28 [0 7000000 ffff0608 0] ------- [REQUEST 7/7 0/0]
r 0.007936180 _3_ MAC  --- 0 ARP 28 [0 7000000 ffff0608 0] ------- [REQUEST 7/7 0/0]
r 0.007936183 _10_ MAC  --- 0 ARP 28 [0 7000000 ffff0608 0] ------- [REQUEST 7/7 0/0]
r 0.007936185 _2_ MAC  --- 0 ARP 28 [0 7000000 ffff0608 0] ------- [REQUEST 7/7 0/0]
r 0.007936216 _9_ MAC  --- 0 ARP 28 [0 7000000 ffff0608 0] ------- [REQUEST 7/7 0/0]
s 0.009232425 _0_ MAC  --- 0 ARP 28 [0 0 608 0] ------- [REPLY 0/0 8/8]
r 0.009344457 _8_ MAC  --- 0 ARP 28 [0 0 608 0] ------- [REPLY 0/0 8/8]
s 0.009731814 _10_ MAC  --- 0 ARP 28 [0 a000000 ffff0608 0] ------- [REQUEST 10/10 0/0]
r 0.009843830 _6_ MAC  --- 0 ARP 28 [0 a000000 ffff0608 0] ------- [REQUEST 10/10 0/0]
r 0.009843868 _4_ MAC  --- 0 ARP 28 [0 a000000 ffff0608 0] ------- [REQUEST 10/10 0/0]
r 0.009843893 _7_ MAC  --- 0 ARP 28 [0 a000000 ffff0608 0] ------- [REQUEST 10/10 0/0]
r 0.009843897 _8_ MAC  --- 0 ARP 28 [0 a000000 ffff0608 0] ------- [REQUEST 10/10 0/0]
r 0.009843921 _0_ MAC  --- 0 ARP 28 [0 a000000 ffff0608 0] ------- [REQUEST 10/10 0/0]
r 0.009843930 _5_ MAC  --- 0 ARP 28 [0 a000000 ffff0608 0] ------- [REQUEST 10/10 0/0]
r 0.009843948 _3_ MAC  --- 0 ARP 28 [0 a000000 ffff0608 0] ------- [REQUEST 10/10 0/0]
r 0.009843950 _1_ MAC  --- 0 ARP 28 [0 a000000 ffff0608 0] ------- [REQUEST 10/10 0/0]
r 0.009843953 _2_ MAC  --- 0 ARP 28 [0 a000000 ffff0608 0] ------- [REQUEST 10/10 0/0]
r 0.009844004 _9_ MAC  --- 0 ARP 28 [0 a000000 ffff0608 0] ------- [REQUEST 10/10 0/0]
s 0.011515392 _8_ MAC  --- 0 ARP 28 [0 8000000 ffff0608 0] ------- [REQUEST 8/8 0/0]
r 0.011627423 _7_ MAC  --- 0 ARP 28 [0 8000000 ffff0608 0] ------- [REQUEST 8/8 0/0]
r 0.011627425 _0_ MAC  --- 0 ARP 28 [0 8000000 ffff0608 0] ------- [REQUEST 8/8 0/0]
r 0.011627436 _4_ MAC  --- 0 ARP 28 [0 8000000 ffff0608 0] ------- [REQUEST 8/8 0/0]
r 0.011627445 _3_ MAC  --- 0 ARP 28 [0 8000000 ffff0608 0] ------- [REQUEST 8/8 0/0]
r 0.011627447 _1_ MAC  --- 0 ARP 28 [0 8000000 ffff0608 0] ------- [REQUEST 8/8 0/0]
r 0.011627453 _5_ MAC  --- 0 ARP 28 [0 8000000 ffff0608 0] ------- [REQUEST 8/8 0/0]
r 0.011627460 _6_ MAC  --- 0 ARP 28 [0 8000000 ffff0608 0] ------- [REQUEST 8/8 0/0]
r 0.011627475 _10_ MAC  --- 0 ARP 28 [0 8000000 ffff0608 0] ------- [REQUEST 8/8 0/0]
r 0.011627503 _2_ MAC  --- 0 ARP 28 [0 8000000 ffff0608 0] ------- [REQUEST 8/8 0/0]
r 0.011627504 _9_ MAC  --- 0 ARP 28 [0 8000000 ffff0608 0] ------- [REQUEST 8/8 0/0]
s 0.011901790 _9_ MAC  --- 0 ARP 28 [0 9000000 ffff0608 0] ------- [REQUEST 9/9 0/0]
r 0.012013847 _1_ MAC  --- 0 ARP 28 [0 9000000 ffff0608 0] ------- [REQUEST 9/9 0/0]
r 0.012013870 _3_ MAC  --- 0 ARP 28 [0 9000000 ffff0608 0] ------- [REQUEST 9/9 0/0]
r 0.012013873 _0_ MAC  --- 0 ARP 28 [0 9000000 ffff0608 0] ------- [REQUEST 9/9 0/0]
r 0.012013875 _5_ MAC  --- 0 ARP 28 [0 9000000 ffff0608 0] ------- [REQUEST 9/9 0/0]
r 0.012013902 _8_ MAC  --- 0 ARP 28 [0 9000000 ffff0608 0] ------- [REQUEST 9/9 0/0]
r 0.012013902 _7_ MAC  --- 0 ARP 28 [0 9000000 ffff0608 0] ------- [REQUEST 9/9 0/0]
r 0.012013910 _2_ MAC  --- 0 ARP 28 [0 9000000 ffff0608 0] ------- [REQUEST 9/9 0/0]
r 0.012013945 _4_ MAC  --- 0 ARP 28 [0 9000000 ffff0608 0] ------- [REQUEST 9/9 0/0]
r 0.012013966 _6_ MAC  --- 0 ARP 28 [0 9000000 ffff0608 0] ------- [REQUEST 9/9 0/0]
r 0.012013980 _10_ MAC  --- 0 ARP 28 [0 9000000 ffff0608 0] ------- [REQUEST 9/9 0/0]
s 0.013208900 _2_ MAC  --- 0 ARP 28 [0 2000000 ffff0608 0] ------- [REQUEST 2/2 0/0]
r 0.013320954 _5_ MAC  --- 0 ARP 28 [0 2000000 ffff0608 0] ------- [REQUEST 2/2 0/0]
r 0.013320981 _7_ MAC  --- 0 ARP 28 [0 2000000 ffff0608 0] ------- [REQUEST 2/2 0/0]
r 0.013320988 _0_ MAC  --- 0 ARP 28 [0 2000000 ffff0608 0] ------- [REQUEST 2/2 0/0]
r 0.013321005 _1_ MAC  --- 0 ARP 28 [0 2000000 ffff0608 0] ------- [REQUEST 2/2 0/0]
r 0.013321011 _8_ MAC  --- 0 ARP 28 [0 2000000 ffff0608 0] ------- [REQUEST 2/2 0/0]
r 0.013321020 _9_ MAC  --- 0 ARP 28 [0 2000000 ffff0608 0] ------- [REQUEST 2/2 0/0]
r 0.013321032 _6_ MAC  --- 0 ARP 28 [0 2000000 ffff0608 0] ------- [REQUEST 2/2 0/0]
r 0.013321036 _3_ MAC  --- 0 ARP 28 [0 2000000 ffff0608 0] ------- [REQUEST 2/2 0/0]
r 0.013321039 _10_ MAC  --- 0 ARP 28 [0 2000000 ffff0608 0] ------- [REQUEST 2/2 0/0]
r 0.013321041 _4_ MAC  --- 0 ARP 28 [0 2000000 ffff0608 0] ------- [REQUEST 2/2 0/0]
s 0.013931814 _10_ MAC  --- 0 ARP 28 [0 a000000 ffff0608 0] ------- [REQUEST 10/10 0/0]
s 0.014024104 _7_ MAC  --- 0 ARP 28 [0 7000000 ffff0608 0] ------- [REQUEST 7/7 0/0]
r 0.014043830 _6_ MAC  --- 0 ARP 28 [0 a000000 ffff0608 0] ------- [REQUEST 10/10 0/0]
r 0.014043893 _7_ MAC  --- 0 ARP 28 [0 a000000 ffff0608 0] ------- [REQUEST 10/10 0/0]
D 0.014136135 _0_ MAC  COL 0 ARP 28 [0 7000000 ffff0608 0] ------- [REQUEST 7/7 0/0]
D 0.014136135 _8_ MAC  COL 0 ARP 28 [0 7000000 ffff0608 0] ------- [REQUEST 7/7 0/0]
D 0.014136143 _5_ MAC  COL 0 ARP 28 [0 7000000 ffff0608 0] ------- [REQUEST 7/7 0/0]
D 0.014136165 _4_ MAC  COL 0 ARP 28 [0 7000000 ffff0608 0] ------- [REQUEST 7/7 0/0]
D 0.014136166 _1_ MAC  COL 0 ARP 28 [0 7000000 ffff0608 0] ------- [REQUEST 7/7 0/0]
D 0.014136180 _3_ MAC  COL 0 ARP 28 [0 7000000 ffff0608 0] ------- [REQUEST 7/7 0/0]
r 0.014136183 _10_ MAC  --- 0 ARP 28 [0 7000000 ffff0608 0] ------- [REQUEST 7/7 0/0]
D 0.014136185 _2_ MAC  COL 0 ARP 28 [0 7000000 ffff0608 0] ------- [REQUEST 7/7 0/0]
D 0.014136216 _9_ MAC  COL 0 ARP 28 [0 7000000 ffff0608 0] ------- [REQUEST 7/7 0/0]
s 0.014832425 _0_ MAC  --- 0 ARP 28 [0 0 608 0] ------- [REPLY 0/0 8/8]
r 0.014944457 _8_ MAC  --- 0 ARP 28 [0 0 608 0] ------- [REPLY 0/0 8/8]
s 0.015008900 _2_ MAC  --- 0 ARP 28 [0 2000000 ffff0608 0] ------- [REQUEST 2/2 0/0]
r 0.015120954 _5_ MAC  --- 0 ARP 28 [0 2000000 ffff0608 0] ------- [REQUEST 2/2 0/0]
r 0.015120981 _7_ MAC  --- 0 ARP 28 [0 2000000 ffff0608 0] ------- [REQUEST 2/2 0/0]
r 0.015120988 _0_ MAC  --- 0 ARP 28 [0 2000000 ffff0608 0] ------- [REQUEST 2/2 0/0]
r 0.015121005 _1_ MAC  --- 0 ARP 28 [0 2000000 ffff0608 0] ------- [REQUEST 2/2 0/0]
r 0.015121011 _8_ MAC  --- 0 ARP 28 [0 2000000 ffff0608 0] ------- [REQUEST 2/2 0/0]
r 0.015121020 _9_ MAC  --- 0 ARP 28 [0 2000000 ffff0608 0] ------- [REQUEST 2/2 0/0]
r 0.015121032 _6_ MAC  --- 0 ARP 28 [0 2000000 ffff0608 0] ------- [REQUEST 2/2 0/0]
r 0.015121036 _3_ MAC  --- 0 ARP 28 [0 2000000 ffff0608 0] ------- [REQUEST 2/2 0/0]
r 0.015121039 _10_ MAC  --- 0 ARP 28 [0 2000000 ffff0608 0] ------- [REQUEST 2/2 0/0]
r 0.015121041 _4_ MAC  --- 0 ARP 28 [0 2000000 ffff0608 0] ------- [REQUEST 2/2 0/0]
s 0.016315392 _8_ MAC  --- 0 ARP 28 [0 8000000 ffff0608 0] ------- [REQUEST 8/8 0/0]
r 0.016427423 _7_ MAC  --- 0 ARP 28 [0 8000000 ffff0608 0] ------- [REQUEST 8/8 0/0]
r 0.016427425 _0_ MAC  --- 0 ARP 28 [0 8000000 ffff0608 0] ------- [REQUEST 8/8 0/0]
r 0.016427436 _4_ MAC  --- 0 ARP 28 [0 8000000 ffff0608 0] ------- [REQUEST 8/8 0/0]
r 0.016427445 _3_ MAC  --- 0 ARP 28 [0 8000000 ffff0608 0] ------- [REQUEST 8/8 0/0]
r 0.016427447 _1_ MAC  --- 0 ARP 28 [0 8000000 ffff0608 0] ------- [REQUEST 8/8 0/0]
r 0.016427453 _5_ MAC  --- 0 ARP 28 [0 8000000 ffff0608 0] ------- [REQUEST 8/8 0/0]
r 0.016427460 _6_ MAC  --- 0 ARP 28 [0 8000000 ffff0608 0] ------- [REQUEST 8/8 0/0]
r 0.016427475 _10_ MAC  --- 0 ARP 28 [0 8000000 ffff0608 0] ------- [REQUEST 8/8 0/0]
r 0.016427503 _2_ MAC  --- 0 ARP 28 [0 8000000 ffff0608 0] ------- [REQUEST 8/8 0/0]
r 0.016427504 _9_ MAC  --- 0 ARP 28 [0 8000000 ffff0608 0] ------- [REQUEST 8/8 0/0]
s 0.016701790 _9_ MAC  --- 0 ARP 28 [0 9000000 ffff0608 0] ------- [REQUEST 9/9 0/0]
r 0.016813847 _1_ MAC  --- 0 ARP 28 [0 9000000 ffff0608 0] ------- [REQUEST 9/9 0/0]
r 0.016813870 _3_ MAC  --- 0 ARP 28 [0 9000000 ffff0608 0] ------- [REQUEST 9/9 0/0]
r 0.016813873 _0_ MAC  --- 0 ARP 28 [0 9000000 ffff0608 0] ------- [REQUEST 9/9 0/0]
r 0.016813875 _5_ MAC  --- 0 ARP 28 [0 9000000 ffff0608 0] ------- [REQUEST 9/9 0/0]
r 0.016813902 _8_ MAC  --- 0 ARP 28 [0 9000000 ffff0608 0] ------- [REQUEST 9/9 0/0]
r 0.016813902 _7_ MAC  --- 0 ARP 28 [0 9000000 ffff0608 0] ------- [REQUEST 9/9 0/0]
r 0.016813910 _2_ MAC  --- 0 ARP 28 [0 9000000 ffff0608 0] ------- [REQUEST 9/9 0/0]
r 0.016813945 _4_ MAC  --- 0 ARP 28 [0 9000000 ffff0608 0] ------- [REQUEST 9/9 0/0]
r 0.016813966 _6_ MAC  --- 0 ARP 28 [0 9000000 ffff0608 0] ------- [REQUEST 9/9 0/0]
r 0.016813980 _10_ MAC  --- 0 ARP 28 [0 9000000 ffff0608 0] ------- [REQUEST 9/9 0/0]
s 0.016920320 _5_ MAC  --- 0 ARP 28 [0 5000000 ffff0608 0] ------- [REQUEST 5/5 0/0]
r 0.017032354 _0_ MAC  --- 0 ARP 28 [0 5000000 ffff0608 0] ------- [REQUEST 5/5 0/0]
r 0.017032359 _7_ MAC  --- 0 ARP 28 [0 5000000 ffff0608 0] ------- [REQUEST 5/5 0/0]
r 0.017032373 _1_ MAC  --- 0 ARP 28 [0 5000000 ffff0608 0] ------- [REQUEST 5/5 0/0]
r 0.017032374 _2_ MAC  --- 0 ARP 28 [0 5000000 ffff0608 0] ------- [REQUEST 5/5 0/0]
r 0.017032381 _8_ MAC  --- 0 ARP 28 [0 5000000 ffff0608 0] ------- [REQUEST 5/5 0/0]
r 0.017032402 _3_ MAC  --- 0 ARP 28 [0 5000000 ffff0608 0] ------- [REQUEST 5/5 0/0]
r 0.017032405 _9_ MAC  --- 0 ARP 28 [0 5000000 ffff0608 0] ------- [REQUEST 5/5 0/0]
r 0.017032419 _4_ MAC  --- 0 ARP 28 [0 5000000 ffff0608 0] ------- [REQUEST 5/5 0/0]
r 0.017032425 _6_ MAC  --- 0 ARP 28 [0 5000000 ffff0608 0] ------- [REQUEST 5/5 0/0]
r 0.017032436 _10_ MAC  --- 0 ARP 28 [0 5000000 ffff0608 0] ------- [REQUEST 5/5 0/0]
s 0.017101790 _9_ MAC  --- 0 ARP 28 [0 9000000 ffff0608 0] ------- [REQUEST 9/9 0/0]
r 0.017213847 _1_ MAC  --- 0 ARP 28 [0 9000000 ffff0608 0] ------- [REQUEST 9/9 0/0]
r 0.017213870 _3_ MAC  --- 0 ARP 28 [0 9000000 ffff0608 0] ------- [REQUEST 9/9 0/0]
r 0.017213873 _0_ MAC  --- 0 ARP 28 [0 9000000 ffff0608 0] ------- [REQUEST 9/9 0/0]
r 0.017213875 _5_ MAC  --- 0 ARP 28 [0 9000000 ffff0608 0] ------- [REQUEST 9/9 0/0]
r 0.017213902 _8_ MAC  --- 0 ARP 28 [0 9000000 ffff0608 0] ------- [REQUEST 9/9 0/0]
r 0.017213902 _7_ MAC  --- 0 ARP 28 [0 9000000 ffff0608 0] ------- [REQUEST 9/9 0/0]
r 0.017213910 _2_ MAC  --- 0 ARP 28 [0 9000000 ffff0608 0] ------- [REQUEST 9/9 0/0]
r 0.017213945 _4_ MAC  --- 0 ARP 28 [0 9000000 ffff0608 0] ------- [REQUEST 9/9 0/0]
r 0.017213966 _6_ MAC  --- 0 ARP 28 [0 9000000 ffff0608 0] ------- [REQUEST 9/9 0/0]
r 0.017213980 _10_ MAC  --- 0 ARP 28 [0 9000000 ffff0608 0] ------- [REQUEST 9/9 0/0]
s 0.017632425 _0_ MAC  --- 0 ARP 28 [0 0 608 0] ------- [REPLY 0/0 8/8]
r 0.017744457 _8_ MAC  --- 0 ARP 28 [0 0 608 0] ------- [REPLY 0/0 8/8]
s 0.018816210 _6_ MAC  --- 0 ARP 28 [0 6000000 ffff0608 0] ------- [REQUEST 6/6 0/0]
s 0.018827392 _8_ MAC  --- 0 cbr 16 [0 8000000 8 0] ------- [8:0 0:0 32 0] [0] 0 0
r 0.018928226 _10_ MAC  --- 0 ARP 28 [0 6000000 ffff0608 0] ------- [REQUEST 6/6 0/0]
D 0.018928249 _4_ MAC  COL 0 ARP 28 [0 6000000 ffff0608 0] ------- [REQUEST 6/6 0/0]
D 0.018928276 _7_ MAC  COL 0 ARP 28 [0 6000000 ffff0608 0] ------- [REQUEST 6/6 0/0]
r 0.018928278 _8_ MAC  --- 0 ARP 28 [0 6000000 ffff0608 0] ------- [REQUEST 6/6 0/0]
D 0.018928303 _0_ MAC  COL 0 ARP 28 [0 6000000 ffff0608 0] ------- [REQUEST 6/6 0/0]
D 0.018928315 _5_ MAC  COL 0 ARP 28 [0 6000000 ffff0608 0] ------- [REQUEST 6/6 0/0]
D 0.018928329 _3_ MAC  COL 0 ARP 28 [0 6000000 ffff0608 0] ------- [REQUEST 6/6 0/0]
D 0.018928331 _1_ MAC  COL 0 ARP 28 [0 6000000 ffff0608 0] ------- [REQUEST 6/6 0/0]
D 0.018928342 _2_ MAC  COL 0 ARP 28 [0 6000000 ffff0608 0] ------- [REQUEST 6/6 0/0]
D 0.018928386 _9_ MAC  COL 0 ARP 28 [0 6000000 ffff0608 0] ------- [REQUEST 6/6 0/0]
s 0.019024104 _7_ MAC  --- 0 ARP 28 [0 7000000 ffff0608 0] ------- [REQUEST 7/7 0/0]
r 0.019136135 _0_ MAC  --- 0 ARP 28 [0 7000000 ffff0608 0] ------- [REQUEST 7/7 0/0]
r 0.019136135 _8_ MAC  --- 0 ARP 28 [0 7000000 ffff0608 0] ------- [REQUEST 7/7 0/0]
r 0.019136143 _5_ MAC  --- 0 ARP 28 [0 7000000 ffff0608 0] ------- [REQUEST 7/7 0/0]
r 0.019136165 _4_ MAC  --- 0 ARP 28 [0 7000000 ffff0608 0] ------- [REQUEST 7/7 0/0]
r 0.019136166 _1_ MAC  --- 0 ARP 28 [0 7000000 ffff0608 0] ------- [REQUEST 7/7 0/0]
r 0.019136170 _6_ MAC  --- 0 ARP 28 [0 7000000 ffff0608 0] ------- [REQUEST 7/7 0/0]
r 0.019136180 _3_ MAC  --- 0 ARP 28 [0 7000000 ffff0608 0] ------- [REQUEST 7/7 0/0]
r 0.019136183 _10_ MAC  --- 0 ARP 28 [0 7000000 ffff0608 0] ------- [REQUEST 7/7 0/0]
r 0.019136185 _2_ MAC  --- 0 ARP 28 [0 7000000 ffff0608 0] ------- [REQUEST 7/7 0/0]
r 0.019136216 _9_ MAC  --- 0 ARP 28 [0 7000000 ffff0608 0] ------- [REQUEST 7/7 0/0]
s 0.019395450 _1_ MAC  --- 0 ARP 28 [0 1000000 ffff0608 0] ------- [REQUEST 1/1 0/0]
r 0.019507481 _0_ MAC  --- 0 ARP 28 [0 1000000 ffff0608 0] ------- [REQUEST 1/1 0/0]
r 0.019507485 _3_ MAC  --- 0 ARP 28 [0 1000000 ffff0608 0] ------- [REQUEST 1/1 0/0]
r 0.019507503 _5_ MAC  --- 0 ARP 28 [0 1000000 ffff0608 0] ------- [REQUEST 1/1 0/0]
r 0.019507505 _8_ MAC  --- 0 ARP 28 [0 1000000 ffff0608 0] ------- [REQUEST 1/1 0/0]
r 0.019507507 _9_ MAC  --- 0 ARP 28 [0 1000000 ffff0608 0] ------- [REQUEST 1/1 0/0]
r 0.019507512 _7_ MAC  --- 0 ARP 28 [0 1000000 ffff0608 0] ------- [REQUEST 1/1 0/0]
r 0.019507548 _4_ MAC  --- 0 ARP 28 [0 1000000 ffff0608 0] ------- [REQUEST 1/1 0/0]
r 0.019507555 _2_ MAC  --- 0 ARP 28 [0 1000000 ffff0608 0] ------- [REQUEST 1/1 0/0]
r 0.019507571 _6_ MAC  --- 0 ARP 28 [0 1000000 ffff0608 0] ------- [REQUEST 1/1 0/0]
r 0.019507586 _10_ MAC  --- 0 ARP 28 [0 1000000 ffff0608 0] ------- [REQUEST 1/1 0/0]
s 0.019744425 _0_ MAC  --- 0 ARP 28 [0 0 608 0] ------- [REPLY 0/0 7/7]
r 0.019856456 _7_ MAC  --- 0 ARP 28 [0 0 608 0] ------- [REPLY 0/0 7/7]
s 0.020608900 _2_ MAC  --- 0 ARP 28 [0 2000000 ffff0608 0] ------- [REQUEST 2/2 0/0]
r 0.020720954 _5_ MAC  --- 0 ARP 28 [0 2000000 ffff0608 0] ------- [REQUEST 2/2 0/0]
r 0.020720981 _7_ MAC  --- 0 ARP 28 [0 2000000 ffff0608 0] ------- [REQUEST 2/2 0/0]
r 0.020720988 _0_ MAC  --- 0 ARP 28 [0 2000000 ffff0608 0] ------- [REQUEST 2/2 0/0]
r 0.020721005 _1_ MAC  --- 0 ARP 28 [0 2000000 ffff0608 0] ------- [REQUEST 2/2 0/0]
r 0.020721011 _8_ MAC  --- 0 ARP 28 [0 2000000 ffff0608 0] ------- [REQUEST 2/2 0/0]
r 0.020721020 _9_ MAC  --- 0 ARP 28 [0 2000000 ffff0608 0] ------- [REQUEST 2/2 0/0]
r 0.020721032 _6_ MAC  --- 0 ARP 28 [0 2000000 ffff0608 0] ------- [REQUEST 2/2 0/0]
r 0.020721036 _3_ MAC  --- 0 ARP 28 [0 2000000 ffff0608 0] ------- [REQUEST 2/2 0/0]
r 0.020721039 _10_ MAC  --- 0 ARP 28 [0 2000000 ffff0608 0] ------- [REQUEST 2/2 0/0]
r 0.020721041 _4_ MAC  --- 0 ARP 28 [0 2000000 ffff0608 0] ------- [REQUEST 2/2 0/0]
s 0.020731814 _10_ MAC  --- 0 ARP 28 [0 a000000 ffff0608 0] ------- [REQUEST 10/10 0/0]
r 0.020843830 _6_ MAC  --- 0 ARP 28 [0 a000000 ffff0608 0] ------- [REQUEST 10/10 0/0]
r 0.020843868 _4_ MAC  --- 0 ARP 28 [0 a000000 ffff0608 0] ------- [REQUEST 10/10 0/0]
r 0.020843893 _7_ MAC  --- 0 ARP 28 [0 a000000 ffff0608 0] ------- [REQUEST 10/10 0/0]
r 0.020843897 _8_ MAC  --- 0 ARP 28 [0 a000000 ffff0608 0] ------- [REQUEST 10/10 0/0]
r 0.020843921 _0_ MAC  --- 0 ARP 28 [0 a000000 ffff0608 0] ------- [REQUEST 10/10 0/0]
r 0.020843930 _5_ MAC  --- 0 ARP 28 [0 a000000 ffff0608 0] ------- [REQUEST 10/10 0/0]
r 0.020843948 _3_ MAC  --- 0 ARP 28 [0 a000000 ffff0608 0] ------- [REQUEST 10/10 0/0]
r 0.020843950 _1_ MAC  --- 0 ARP 28 [0 a000000 ffff0608 0] ------- [REQUEST 10/10 0/0]
r 0.020843953 _2_ MAC  --- 0 ARP 28 [0 a000000 ffff0608 0] ------- [REQUEST 10/10 0/0]
r 0.020844004 _9_ MAC  --- 0 ARP 28 [0 a000000 ffff0608 0] ------- [REQUEST 10/10 0/0]
s 0.021627392 _8_ MAC  --- 0 cbr 16 [0 8000000 8 0] ------- [8:0 0:0 32 0] [0] 0 0
r 0.021691425 _0_ MAC  --- 0 cbr 16 [0 8000000 8 0] ------- [8:0 0:0 32 0] [0] 0 0
s 0.022471730 _4_ MAC  --- 0 ARP 28 [0 4000000 ffff0608 0] ------- [REQUEST 4/4 0/0]
r 0.022583769 _6_ MAC  --- 0 ARP 28 [0 4000000 ffff0608 0] ------- [REQUEST 4/4 0/0]
r 0.022583774 _8_ MAC  --- 0 ARP 28 [0 4000000 ffff0608 0] ------- [REQUEST 4/4 0/0]
r 0.022583784 _10_ MAC  --- 0 ARP 28 [0 4000000 ffff0608 0] ------- [REQUEST 4/4 0/0]
r 0.022583791 _7_ MAC  --- 0 ARP 28 [0 4000000 ffff0608 0] ------- [REQUEST 4/4 0/0]
r 0.022583806 _0_ MAC  --- 0 ARP 28 [0 4000000 ffff0608 0] ------- [REQUEST 4/4 0/0]
r 0.022583817 _3_ MAC  --- 0 ARP 28 [0 4000000 ffff0608 0] ------- [REQUEST 4/4 0/0]
r 0.022583828 _1_ MAC  --- 0 ARP 28 [0 4000000 ffff0608 0] ------- [REQUEST 4/4 0/0]
r 0.022583829 _5_ MAC  --- 0 ARP 28 [0 4000000 ffff0608 0] ------- [REQUEST 4/4 0/0]
r 0.022583871 _2_ MAC  --- 0 ARP 28 [0 4000000 ffff0608 0] ------- [REQUEST 4/4 0/0]
r 0.022583885 _9_ MAC  --- 0 ARP 28 [0 4000000 ffff0608 0] ------- [REQUEST 4/4 0/0]
s 0.023195450 _1_ MAC  --- 0 ARP 28 [0 1000000 ffff0608 0] ------- [REQUEST 1/1 0/0]
r 0.023307481 _0_ MAC  --- 0 ARP 28 [0 1000000 ffff0608 0] ------- [REQUEST 1/1 0/0]
r 0.023307485 _3_ MAC  --- 0 ARP 28 [0 1000000 ffff0608 0] ------- [REQUEST 1/1 0/0]
r 0.023307503 _5_ MAC  --- 0 ARP 28 [0 1000000 ffff0608 0] ------- [REQUEST 1/1 0/0]
r 0.023307505 _8_ MAC  --- 0 ARP 28 [0 1000000 ffff0608 0] ------- [REQUEST 1/1 0/0]
r 0.023307507 _9_ MAC  --- 0 ARP 28 [0 1000000 ffff0608 0] ------- [REQUEST 1/1 0/0]
r 0.023307512 _7_ MAC  --- 0 ARP 28 [0 1000000 ffff0608 0] ------- [REQUEST 1/1 0/0]
r 0.023307548 _4_ MAC  --- 0 ARP 28 [0 1000000 ffff0608 0] ------- [REQUEST 1/1 0/0]
r 0.023307555 _2_ MAC  --- 0 ARP 28 [0 1000000 ffff0608 0] ------- [REQUEST 1/1 0/0]
r 0.023307571 _6_ MAC  --- 0 ARP 28 [0 1000000 ffff0608 0] ------- [REQUEST 1/1 0/0]
r 0.023307586 _10_ MAC  --- 0 ARP 28 [0 1000000 ffff0608 0] ------- [REQUEST 1/1 0/0]
s 0.024061456 _7_ MAC  --- 2 cbr 16 [0 7000000 8 0] ------- [7:0 0:0 32 0] [0] 0 0
r 0.024125486 _0_ MAC  --- 2 cbr 16 [0 7000000 8 0] ------- [7:0 0:0 32 0] [0] 0 0
s 0.024344425 _0_ MAC  --- 0 ARP 28 [0 0 608 0] ------- [REPLY 0/0 7/7]
r 0.024456456 _7_ MAC  --- 0 ARP 28 [0 0 608 0] ------- [REPLY 0/0 7/7]
D 0.025126814 _10_ IFQ  ARP 1 cbr 16 [0 a000000 8 0] ------- [10:0 0:0 32 0] [0] 0 0
s 0.026520320 _5_ MAC  --- 0 ARP 28 [0 5000000 ffff0608 0] ------- [REQUEST 5/5 0/0]
r 0.026632354 _0_ MAC  --- 0 ARP 28 [0 5000000 ffff0608 0] ------- [REQUEST 5/5 0/0]
r 0.026632359 _7_ MAC  --- 0 ARP 28 [0 5000000 ffff0608 0] ------- [REQUEST 5/5 0/0]
r 0.026632373 _1_ MAC  --- 0 ARP 28 [0 5000000 ffff0608 0] ------- [REQUEST 5/5 0/0]
r 0.026632374 _2_ MAC  --- 0 ARP 28 [0 5000000 ffff0608 0] ------- [REQUEST 5/5 0/0]
r 0.026632381 _8_ MAC  --- 0 ARP 28 [0 5000000 ffff0608 0] ------- [REQUEST 5/5 0/0]
r 0.026632402 _3_ MAC  --- 0 ARP 28 [0 5000000 ffff0608 0] ------- [REQUEST 5/5 0/0]
r 0.026632405 _9_ MAC  --- 0 ARP 28 [0 5000000 ffff0608 0] ------- [REQUEST 5/5 0/0]
r 0.026632419 _4_ MAC  --- 0 ARP 28 [0 5000000 ffff0608 0] ------- [REQUEST 5/5 0/0]
r 0.026632425 _6_ MAC  --- 0 ARP 28 [0 5000000 ffff0608 0] ------- [REQUEST 5/5 0/0]
r 0.026632436 _10_ MAC  --- 0 ARP 28 [0 5000000 ffff0608 0] ------- [REQUEST 5/5 0/0]
s 0.027816210 _6_ MAC  --- 0 ARP 28 [0 6000000 ffff0608 0] ------- [REQUEST 6/6 0/0]
s 0.027871730 _4_ MAC  --- 0 ARP 28 [0 4000000 ffff0608 0] ------- [REQUEST 4/4 0/0]
r 0.027928226 _10_ MAC  --- 0 ARP 28 [0 6000000 ffff0608 0] ------- [REQUEST 6/6 0/0]
r 0.027928249 _4_ MAC  --- 0 ARP 28 [0 6000000 ffff0608 0] ------- [REQUEST 6/6 0/0]
r 0.027983769 _6_ MAC  --- 0 ARP 28 [0 4000000 ffff0608 0] ------- [REQUEST 4/4 0/0]
D 0.027983774 _8_ MAC  COL 0 ARP 28 [0 4000000 ffff0608 0] ------- [REQUEST 4/4 0/0]
D 0.027983791 _7_ MAC  COL 0 ARP 28 [0 4000000 ffff0608 0] ------- [REQUEST 4/4 0/0]
D 0.027983806 _0_ MAC  COL 0 ARP 28 [0 4000000 ffff0608 0] ------- [REQUEST 4/4 0/0]
D 0.027983817 _3_ MAC  COL 0 ARP 28 [0 4000000 ffff0608 0] ------- [REQUEST 4/4 0/0]
D 0.027983828 _1_ MAC  COL 0 ARP 28 [0 4000000 ffff0608 0] ------- [REQUEST 4/4 0/0]
D 0.027983829 _5_ MAC  COL 0 ARP 28 [0 4000000 ffff0608 0] ------- [REQUEST 4/4 0/0]
D 0.027983871 _2_ MAC  COL 0 ARP 28 [0 4000000 ffff0608 0] ------- [REQUEST 4/4 0/0]
D 0.027983885 _9_ MAC  COL 0 ARP 28 [0 4000000 ffff0608 0] ------- [REQUEST 4/4 0/0]
s 0.028816210 _6_ MAC  --- 0 ARP 28 [0 6000000 ffff0608 0] ------- [REQUEST 6/6 0/0]
s 0.028920320 _5_ MAC  --- 0 ARP 28 [0 5000000 ffff0608 0] ------- [REQUEST 5/5 0/0]
r 0.028928226 _10_ MAC  --- 0 ARP 28 [0 6000000 ffff0608 0] ------- [REQUEST 6/6 0/0]
s 0.029013640 _3_ MAC  --- 0 ARP 28 [0 3000000 ffff0608 0] ------- [REQUEST 3/3 0/0]
D 0.029032402 _3_ MAC  COL 0 ARP 28 [0 5000000 ffff0608 0] ------- [REQUEST 5/5 0/0]
D 0.029125675 _1_ MAC  COL 0 ARP 28 [0 3000000 ffff0608 0] ------- [REQUEST 3/3 0/0]
D 0.029125691 _0_ MAC  COL 0 ARP 28 [0 3000000 ffff0608 0] ------- [REQUEST 3/3 0/0]
D 0.029125693 _8_ MAC  COL 0 ARP 28 [0 3000000 ffff0608 0] ------- [REQUEST 3/3 0/0]
D 0.029125716 _7_ MAC  COL 0 ARP 28 [0 3000000 ffff0608 0] ------- [REQUEST 3/3 0/0]
D 0.029125720 _9_ MAC  COL 0 ARP 28 [0 3000000 ffff0608 0] ------- [REQUEST 3/3 0/0]
D 0.029125727 _4_ MAC  COL 0 ARP 28 [0 3000000 ffff0608 0] ------- [REQUEST 3/3 0/0]
D 0.029125759 _6_ MAC  COL 0 ARP 28 [0 3000000 ffff0608 0] ------- [REQUEST 3/3 0/0]
r 0.029125774 _10_ MAC  --- 0 ARP 28 [0 3000000 ffff0608 0] ------- [REQUEST 3/3 0/0]
D 0.029125776 _2_ MAC  COL 0 ARP 28 [0 3000000 ffff0608 0] ------- [REQUEST 3/3 0/0]
D 0.030411210 _6_ IFQ  ARP 3 cbr 16 [0 6000000 8 0] ------- [6:0 0:0 32 0] [0] 0 0
s 0.031144425 _0_ MAC  --- 0 ARP 28 [0 0 608 0] ------- [REPLY 0/0 7/7]
r 0.031256456 _7_ MAC  --- 0 ARP 28 [0 0 608 0] ------- [REPLY 0/0 7/7]
D 0.031296790 _9_ IFQ  ARP 4 cbr 16 [0 9000000 8 0] ------- [9:0 0:0 32 0] [0] 0 0
s 0.031456425 _0_ MAC  --- 0 ARP 28 [0 0 608 0] ------- [REPLY 0/0 10/10]
r 0.031568532 _10_ MAC  --- 0 ARP 28 [0 0 608 0] ------- [REPLY 0/0 10/10]
s 0.031795450 _1_ MAC  --- 0 ARP 28 [0 1000000 ffff0608 0] ------- [REQUEST 1/1 0/0]
r 0.031907481 _0_ MAC  --- 0 ARP 28 [0 1000000 ffff0608 0] ------- [REQUEST 1/1 0/0]
r 0.031907485 _3_ MAC  --- 0 ARP 28 [0 1000000 ffff0608 0] ------- [REQUEST 1/1 0/0]
r 0.031907503 _5_ MAC  --- 0 ARP 28 [0 1000000 ffff0608 0] ------- [REQUEST 1/1 0/0]
r 0.031907505 _8_ MAC  --- 0 ARP 28 [0 1000000 ffff0608 0] ------- [REQUEST 1/1 0/0]
r 0.031907507 _9_ MAC  --- 0 ARP 28 [0 1000000 ffff0608 0] ------- [REQUEST 1/1 0/0]
r 0.031907512 _7_ MAC  --- 0 ARP 28 [0 1000000 ffff0608 0] ------- [REQUEST 1/1 0/0]
r 0.031907548 _4_ MAC  --- 0 ARP 28 [0 1000000 ffff0608 0] ------- [REQUEST 1/1 0/0]
r 0.031907555 _2_ MAC  --- 0 ARP 28 [0 1000000 ffff0608 0] ------- [REQUEST 1/1 0/0]
r 0.031907571 _6_ MAC  --- 0 ARP 28 [0 1000000 ffff0608 0] ------- [REQUEST 1/1 0/0]
r 0.031907586 _10_ MAC  --- 0 ARP 28 [0 1000000 ffff0608 0] ------- [REQUEST 1/1 0/0]
s 0.032331814 _10_ MAC  --- 0 ARP 28 [0 a000000 ffff0608 0] ------- [REQUEST 10/10 0/0]
r 0.032443830 _6_ MAC  --- 0 ARP 28 [0 a000000 ffff0608 0] ------- [REQUEST 10/10 0/0]
r 0.032443868 _4_ MAC  --- 0 ARP 28 [0 a000000 ffff0608 0] ------- [REQUEST 10/10 0/0]
r 0.032443893 _7_ MAC  --- 0 ARP 28 [0 a000000 ffff0608 0] ------- [REQUEST 10/10 0/0]
r 0.032443897 _8_ MAC  --- 0 ARP 28 [0 a000000 ffff0608 0] ------- [REQUEST 10/10 0/0]
r 0.032443921 _0_ MAC  --- 0 ARP 28 [0 a000000 ffff0608 0] ------- [REQUEST 10/10 0/0]
r 0.032443930 _5_ MAC  --- 0 ARP 28 [0 a000000 ffff0608 0] ------- [REQUEST 10/10 0/0]
r 0.032443948 _3_ MAC  --- 0 ARP 28 [0 a000000 ffff0608 0] ------- [REQUEST 10/10 0/0]
r 0.032443950 _1_ MAC  --- 0 ARP 28 [0 a000000 ffff0608 0] ------- [REQUEST 10/10 0/0]
r 0.032443953 _2_ MAC  --- 0 ARP 28 [0 a000000 ffff0608 0] ------- [REQUEST 10/10 0/0]
r 0.032444004 _9_ MAC  --- 0 ARP 28 [0 a000000 ffff0608 0] ------- [REQUEST 10/10 0/0]
D 0.032603900 _2_ IFQ  ARP 5 cbr 16 [0 2000000 8 0] ------- [2:0 0:0 32 0] [0] 0 0
s 0.032901790 _9_ MAC  --- 0 ARP 28 [0 9000000 ffff0608 0] ------- [REQUEST 9/9 0/0]
r 0.033013847 _1_ MAC  --- 0 ARP 28 [0 9000000 ffff0608 0] ------- [REQUEST 9/9 0/0]
r 0.033013870 _3_ MAC  --- 0 ARP 28 [0 9000000 ffff0608 0] ------- [REQUEST 9/9 0/0]
r 0.033013873 _0_ MAC  --- 0 ARP 28 [0 9000000 ffff0608 0] ------- [REQUEST 9/9 0/0]
r 0.033013875 _5_ MAC  --- 0 ARP 28 [0 9000000 ffff0608 0] ------- [REQUEST 9/9 0/0]
r 0.033013902 _8_ MAC  --- 0 ARP 28 [0 9000000 ffff0608 0] ------- [REQUEST 9/9 0/0]
r 0.033013902 _7_ MAC  --- 0 ARP 28 [0 9000000 ffff0608 0] ------- [REQUEST 9/9 0/0]
r 0.033013910 _2_ MAC  --- 0 ARP 28 [0 9000000 ffff0608 0] ------- [REQUEST 9/9 0/0]
r 0.033013945 _4_ MAC  --- 0 ARP 28 [0 9000000 ffff0608 0] ------- [REQUEST 9/9 0/0]
r 0.033013966 _6_ MAC  --- 0 ARP 28 [0 9000000 ffff0608 0] ------- [REQUEST 9/9 0/0]
r 0.033013980 _10_ MAC  --- 0 ARP 28 [0 9000000 ffff0608 0] ------- [REQUEST 9/9 0/0]
s 0.033261456 _7_ MAC  --- 2 cbr 16 [0 7000000 8 0] ------- [7:0 0:0 32 0] [0] 0 0
r 0.033325486 _0_ MAC  --- 2 cbr 16 [0 7000000 8 0] ------- [7:0 0:0 32 0] [0] 0 0
s 0.034261456 _7_ MAC  --- 2 cbr 16 [0 7000000 8 0] ------- [7:0 0:0 32 0] [0] 0 0
r 0.034325486 _0_ MAC  --- 2 cbr 16 [0 7000000 8 0] ------- [7:0 0:0 32 0] [0] 0 0
s 0.034925456 _7_ MAC  --- 12 cbr 16 [0 7000000 8 0] ------- [7:0 0:0 32 0] [1] 0 0
r 0.034989486 _0_ MAC  --- 12 cbr 16 [0 7000000 8 0] ------- [7:0 0:0 32 0] [1] 0 0
s 0.035013640 _3_ MAC  --- 0 ARP 28 [0 3000000 ffff0608 0] ------- [REQUEST 3/3 0/0]
D 0.035115320 _5_ IFQ  ARP 6 cbr 16 [0 5000000 8 0] ------- [5:0 0:0 32 0] [0] 0 0
r 0.035125675 _1_ MAC  --- 0 ARP 28 [0 3000000 ffff0608 0] ------- [REQUEST 3/3 0/0]
r 0.035125691 _0_ MAC  --- 0 ARP 28 [0 3000000 ffff0608 0] ------- [REQUEST 3/3 0/0]
r 0.035125693 _8_ MAC  --- 0 ARP 28 [0 3000000 ffff0608 0] ------- [REQUEST 3/3 0/0]
r 0.035125716 _7_ MAC  --- 0 ARP 28 [0 3000000 ffff0608 0] ------- [REQUEST 3/3 0/0]
r 0.035125720 _9_ MAC  --- 0 ARP 28 [0 3000000 ffff0608 0] ------- [REQUEST 3/3 0/0]
r 0.035125722 _5_ MAC  --- 0 ARP 28 [0 3000000 ffff0608 0] ------- [REQUEST 3/3 0/0]
r 0.035125727 _4_ MAC  --- 0 ARP 28 [0 3000000 ffff0608 0] ------- [REQUEST 3/3 0/0]
r 0.035125759 _6_ MAC  --- 0 ARP 28 [0 3000000 ffff0608 0] ------- [REQUEST 3/3 0/0]
r 0.035125774 _10_ MAC  --- 0 ARP 28 [0 3000000 ffff0608 0] ------- [REQUEST 3/3 0/0]
r 0.035125776 _2_ MAC  --- 0 ARP 28 [0 3000000 ffff0608 0] ------- [REQUEST 3/3 0/0]
s 0.035671730 _4_ MAC  --- 0 ARP 28 [0 4000000 ffff0608 0] ------- [REQUEST 4/4 0/0]
r 0.035783769 _6_ MAC  --- 0 ARP 28 [0 4000000 ffff0608 0] ------- [REQUEST 4/4 0/0]
r 0.035783774 _8_ MAC  --- 0 ARP 28 [0 4000000 ffff0608 0] ------- [REQUEST 4/4 0/0]
r 0.035783784 _10_ MAC  --- 0 ARP 28 [0 4000000 ffff0608 0] ------- [REQUEST 4/4 0/0]
r 0.035783791 _7_ MAC  --- 0 ARP 28 [0 4000000 ffff0608 0] ------- [REQUEST 4/4 0/0]
r 0.035783806 _0_ MAC  --- 0 ARP 28 [0 4000000 ffff0608 0] ------- [REQUEST 4/4 0/0]
r 0.035783817 _3_ MAC  --- 0 ARP 28 [0 4000000 ffff0608 0] ------- [REQUEST 4/4 0/0]
r 0.035783828 _1_ MAC  --- 0 ARP 28 [0 4000000 ffff0608 0] ------- [REQUEST 4/4 0/0]
r 0.035783829 _5_ MAC  --- 0 ARP 28 [0 4000000 ffff0608 0] ------- [REQUEST 4/4 0/0]
r 0.035783871 _2_ MAC  --- 0 ARP 28 [0 4000000 ffff0608 0] ------- [REQUEST 4/4 0/0]
r 0.035783885 _9_ MAC  --- 0 ARP 28 [0 4000000 ffff0608 0] ------- [REQUEST 4/4 0/0]
s 0.035827392 _8_ MAC  --- 0 cbr 16 [0 8000000 8 0] ------- [8:0 0:0 32 0] [0] 0 0
D 0.035866730 _4_ IFQ  ARP 7 cbr 16 [0 4000000 8 0] ------- [4:0 0:0 32 0] [0] 0 0
r 0.035891425 _0_ MAC  --- 0 cbr 16 [0 8000000 8 0] ------- [8:0 0:0 32 0] [0] 0 0
s 0.036016210 _6_ MAC  --- 0 ARP 28 [0 6000000 ffff0608 0] ------- [REQUEST 6/6 0/0]
s 0.036071730 _4_ MAC  --- 0 ARP 28 [0 4000000 ffff0608 0] ------- [REQUEST 4/4 0/0]
r 0.036128226 _10_ MAC  --- 0 ARP 28 [0 6000000 ffff0608 0] ------- [REQUEST 6/6 0/0]
r 0.036128249 _4_ MAC  --- 0 ARP 28 [0 6000000 ffff0608 0] ------- [REQUEST 6/6 0/0]
r 0.036183769 _6_ MAC  --- 0 ARP 28 [0 4000000 ffff0608 0] ------- [REQUEST 4/4 0/0]
D 0.036183774 _8_ MAC  COL 0 ARP 28 [0 4000000 ffff0608 0] ------- [REQUEST 4/4 0/0]
D 0.036183791 _7_ MAC  COL 0 ARP 28 [0 4000000 ffff0608 0] ------- [REQUEST 4/4 0/0]
D 0.036183806 _0_ MAC  COL 0 ARP 28 [0 4000000 ffff0608 0] ------- [REQUEST 4/4 0/0]
D 0.036183817 _3_ MAC  COL 0 ARP 28 [0 4000000 ffff0608 0] ------- [REQUEST 4/4 0/0]
D 0.036183828 _1_ MAC  COL 0 ARP 28 [0 4000000 ffff0608 0] ------- [REQUEST 4/4 0/0]
D 0.036183829 _5_ MAC  COL 0 ARP 28 [0 4000000 ffff0608 0] ------- [REQUEST 4/4 0/0]
D 0.036183871 _2_ MAC  COL 0 ARP 28 [0 4000000 ffff0608 0] ------- [REQUEST 4/4 0/0]
D 0.036183885 _9_ MAC  COL 0 ARP 28 [0 4000000 ffff0608 0] ------- [REQUEST 4/4 0/0]
D 0.036190450 _1_ IFQ  ARP 8 cbr 16 [0 1000000 8 0] ------- [1:0 0:0 32 0] [0] 0 0
s 0.037408900 _2_ MAC  --- 0 ARP 28 [0 2000000 ffff0608 0] ------- [REQUEST 2/2 0/0]
s 0.037491392 _8_ MAC  --- 10 cbr 16 [0 8000000 8 0] ------- [8:0 0:0 32 0] [1] 0 0
r 0.037521011 _8_ MAC  --- 0 ARP 28 [0 2000000 ffff0608 0] ------- [REQUEST 2/2 0/0]